   This run of MOLCAS is using the pymolcas driver

                             OPE
                             OPE          NMOL  CASOP  ENMOLC A   SO
                 OPE        NMOLC        AS  OP EN  MO LC     AS  OP
                OPENM       OL CA        SO  PE NM  OL CA     SOP EN
                OP EN      MO   LC       AS  OP ENMOL  CASO   PENMOL
                OP  EN     MO   LC       AS  OP EN     MO     LC ASO
               OP   E  NMOL  C  AS       OP  EN MO     LC     AS  OP
               OP  E   NMO   LC AS        OPEN  MO     LCASOP EN   M
               O  PEN   MO  LCA  SO
            OPE   NMO   L   CAS    OP
        OPENMOL  CASOP     ENMOL   CASOPE
     OPENMOLCA   SOPENMOLCASOPEN   MOLCASOPE
    OPENMOLCAS   OP           EN   MOL    CAS
    OPENMOLCAS       OP  ENM        O     LCA
    OPENMOLCAS    OPEN  MOLCASO     P  E  NMO
    OPENMOLCAS     OP               E  N  MOL
    OPENMOLCA   SO           PENM   O  L  CAS    OPEN    MO    LCAS
    OPENMOLCA   SOP           ENM   O  L  CAS   OP  EN  MOLC  AS   O
    OPENMOLCA   SOPE           NM      O  LCA   S      OP  EN MO
    OPENMOLC                AS         O  PEN   M      OL  CA  SOPE
    OPENMO        LCASOPE  NMOL        C  ASO   P      ENMOLC     AS
    OPE     NMO      LCA  SO     P     E   NM   OL  CA SO  PE N   MO
          OPENMOLCA            SOPE   NMO        LCAS  O    P  ENMO
     OPENMOLCASOPENMOLCASOPENMOLCASOPENMOLCA
        OPENMOLCASOPENMOLCASOPENMOLCASOPE
            OPENMOLCASOPENMOLCASOPENM
               OPENMOLCASOPENMOLCA        version: v24.02
                   OPENMOLCASO
                       OPE                tag:

 OpenMolcas is free software; you can redistribute it and/or modify it
 under the terms of the GNU Lesser General Public License version 2.1.
 OpenMolcas is distributed in the hope that it will be useful, but it
 is provided "as is" and without any express or implied warranties.
 For more details see the full text of the license in the file
 LICENSE or in <http://www.gnu.org/licenses/>.

                 Copyright (C) The OpenMolcas Authors
           For the author list and the recommended citation,
                   consult the file CONTRIBUTORS.md

           *************************************************
           * pymolcas version py2.10                       *
           *   build 3068ae8b88c9345ec6cfef6fef7f1169      *
           *   (after the EMIL interpreter by V. Veryazov) *
           *************************************************

configuration info
------------------
Host name: yn1.fukui.kyoto-u.ac.jp (Linux)
C Compiler ID: GNU
C flags: -std=gnu99
Fortran Compiler ID: GNU
Fortran flags: -fno-aggressive-loop-optimizations -cpp -fdefault-integer-8 -fmax-stack-var-size=1048576
Definitions: _WARNING_WORKAROUND_;_MOLCAS_;_I8_;_LINUX_
Parallel: OFF (GA=OFF)


   ------------------------------------------------------------------
  |
  |              Project: cyclopropane_grad
  |       Submitted from: /data/home/nisimoto/tutorial_molcas/03
  |         Scratch area: /dev/shm/cyclopropane_grad
  |      Save outputs to: /data/home/nisimoto/tutorial_molcas/03
  |               Molcas: /home/nisimoto/molcas/v24.02/builds/gnu_dev
  |
  | Scratch area is empty
  |
  |       MOLCAS_DRIVER = /data/home/nisimoto/bin/pymolcas
  | MOLCAS_KEEP_WORKDIR = NO
  |       MOLCAS_NPROCS = 1
  |       MOLCAS_SOURCE = /home/nisimoto/molcas/v24.02/builds/gnu_dev
  |    MOLCAS_STRUCTURE = 0
  |
   ------------------------------------------------------------------

++ ---------   Input file   ---------

&GATEWAY
  Coord = 9
  symmetry d3h
  C       -0.870812729      0.000000000      0.000000000
  C        0.435406365      0.754145946      0.000000000
  C        0.435406365     -0.754145946      0.000000000
  H       -1.462319845      0.000000000      0.910552000
  H       -1.462319845      0.000000000     -0.910552000
  H        0.731159923      1.266406134      0.910552000
  H        0.731159923      1.266406134     -0.910552000
  H        0.731159923     -1.266406134     -0.910552000
  H        0.731159923     -1.266406134      0.910552000
  Basis = 6-31G*
  Group = C1
  NoCD

&SEWARD

&SCF

&ALASKA
  SHOW

-- ----------------------------------

--- Start Module: gateway at Mon May  6 17:47:41 2024 ---

()()()()()()()()()()()()()()()()()()()()()()()()()()()()()()()()()()()()()()()()()()()()()()()()()()

                                              &GATEWAY

                                   only a single process is used
                       available to each process: 2.0 GB of memory, 1 thread?
                                             pid: 1033
()()()()()()()()()()()()()()()()()()()()()()()()()()()()()()()()()()()()()()()()()()()()()()()()()()


++    Symmetry information:
      ---------------------

                    Character Table for C1 

                             E  
                    a        1  x, y, xy, Rz, z, xz, Ry, yz, Rx, I
--


++    Basis set information:
      ----------------------


      Basis set label: C.6-31G**....

      Electronic valence basis set:
      ------------------
      Associated Effective Charge   6.000000 au
      Associated Actual Charge      6.000000 au
      Nuclear Model: Point charge

      Shell  nPrim  nBasis  Cartesian Spherical Contaminant
         s      10       3        X                  
         p       4       2        X                  
         d       1       1        X                  


      Basis set label: H.6-31G....

      Electronic valence basis set:
      ------------------
      Associated Effective Charge   1.000000 au
      Associated Actual Charge      1.000000 au
      Nuclear Model: Point charge

      Shell  nPrim  nBasis  Cartesian Spherical Contaminant
         s       4       2        X                  
--


++    Molecular structure info:
      -------------------------

                    ************************************************ 
                    **** Cartesian Coordinates / Bohr, Angstrom **** 
                    ************************************************ 

     Center  Label                x              y              z                     x              y              z
        1      C1              -1.645598       0.000000       0.000000             -0.870813       0.000000       0.000000
        2      C2               0.822799       1.425129       0.000000              0.435406       0.754146       0.000000
        3      C3               0.822799      -1.425129       0.000000              0.435406      -0.754146       0.000000
        4      H4              -2.763384       0.000000       1.720694             -1.462320       0.000000       0.910552
        5      H5              -2.763384       0.000000      -1.720694             -1.462320       0.000000      -0.910552
        6      H6               1.381692       2.393161       1.720694              0.731160       1.266406       0.910552
        7      H7               1.381692       2.393161      -1.720694              0.731160       1.266406      -0.910552
        8      H8               1.381692      -2.393161      -1.720694              0.731160      -1.266406      -0.910552
        9      H9               1.381692      -2.393161       1.720694              0.731160      -1.266406       0.910552

                    *************************************** 
                    *    InterNuclear Distances / Bohr    * 
                    *************************************** 

               1 C1            2 C2            3 C3            4 H4            5 H5            6 H6    
    1 C1       0.000000
    2 C2       2.850259        0.000000
    3 C3       2.850259        2.850259        0.000000
    4 H4       2.051885        4.225220        4.225220        0.000000
    5 H5       2.051885        4.225220        4.225220        3.441388        0.000000
    6 H6       4.225220        2.051885        4.225220        4.786322        5.895085        0.000000
    7 H7       4.225220        2.051885        4.225220        5.895085        4.786322        3.441388
    8 H8       4.225220        4.225220        2.051885        5.895085        4.786322        5.895085
    9 H9       4.225220        4.225220        2.051885        4.786322        5.895085        4.786322

               7 H7            8 H8            9 H9    
    7 H7       0.000000
    8 H8       4.786322        0.000000
    9 H9       5.895085        3.441388        0.000000

                    ******************************************* 
                    *    InterNuclear Distances / Angstrom    * 
                    ******************************************* 

               1 C1            2 C2            3 C3            4 H4            5 H5            6 H6    
    1 C1       0.000000
    2 C2       1.508292        0.000000
    3 C3       1.508292        1.508292        0.000000
    4 H4       1.085811        2.235890        2.235890        0.000000
    5 H5       1.085811        2.235890        2.235890        1.821104        0.000000
    6 H6       2.235890        1.085811        2.235890        2.532812        3.119544        0.000000
    7 H7       2.235890        1.085811        2.235890        3.119544        2.532812        1.821104
    8 H8       2.235890        2.235890        1.085811        3.119544        2.532812        3.119544
    9 H9       2.235890        2.235890        1.085811        2.532812        3.119544        2.532812

               7 H7            8 H8            9 H9    
    7 H7       0.000000
    8 H8       2.532812        0.000000
    9 H9       3.119544        1.821104        0.000000

                    ************************************** 
                    *    Valence Bond Angles / Degree    * 
                    ************************************** 
                          Atom centers                 Phi
                      2 C2       1 C1       3 C3        60.00
                      2 C2       1 C1       4 H4       118.15
                      2 C2       1 C1       5 H5       118.15
                      3 C3       1 C1       4 H4       118.15
                      3 C3       1 C1       5 H5       118.15
                      4 H4       1 C1       5 H5       113.98
                      1 C1       2 C2       3 C3        60.00
                      1 C1       2 C2       6 H6       118.15
                      1 C1       2 C2       7 H7       118.15
                      3 C3       2 C2       6 H6       118.15
                      3 C3       2 C2       7 H7       118.15
                      6 H6       2 C2       7 H7       113.98
                      1 C1       3 C3       2 C2        60.00
                      1 C1       3 C3       8 H8       118.15
                      1 C1       3 C3       9 H9       118.15
                      2 C2       3 C3       8 H8       118.15
                      2 C2       3 C3       9 H9       118.15
                      8 H8       3 C3       9 H9       113.98

           ***************************************************************
           *              Valence Dihedral Angles / Degree               *
           ***************************************************************
                    Atom centers                       Phi1     Phi2     Theta 
           3 C3       1 C1       2 C2       6 H6         60.00   118.15  -107.99
           3 C3       1 C1       2 C2       7 H7         60.00   118.15   107.99
           4 H4       1 C1       2 C2       6 H6        118.15   118.15     0.00
           4 H4       1 C1       2 C2       7 H7        118.15   118.15  -144.01
           5 H5       1 C1       2 C2       6 H6        118.15   118.15   144.01
           5 H5       1 C1       2 C2       7 H7        118.15   118.15    -0.00
           2 C2       1 C1       3 C3       8 H8         60.00   118.15  -107.99
           2 C2       1 C1       3 C3       9 H9         60.00   118.15   107.99
           4 H4       1 C1       3 C3       8 H8        118.15   118.15   144.01
           4 H4       1 C1       3 C3       9 H9        118.15   118.15    -0.00
           5 H5       1 C1       3 C3       8 H8        118.15   118.15     0.00
           5 H5       1 C1       3 C3       9 H9        118.15   118.15  -144.01
           3 C3       2 C2       1 C1       4 H4         60.00   118.15   107.99
           3 C3       2 C2       1 C1       5 H5         60.00   118.15  -107.99
           1 C1       2 C2       3 C3       8 H8         60.00   118.15   107.99
           1 C1       2 C2       3 C3       9 H9         60.00   118.15  -107.99
           6 H6       2 C2       3 C3       8 H8        118.15   118.15  -144.01
           6 H6       2 C2       3 C3       9 H9        118.15   118.15    -0.00
           7 H7       2 C2       3 C3       8 H8        118.15   118.15    -0.00
           7 H7       2 C2       3 C3       9 H9        118.15   118.15   144.01
           2 C2       3 C3       1 C1       4 H4         60.00   118.15  -107.99
           2 C2       3 C3       1 C1       5 H5         60.00   118.15   107.99
           1 C1       3 C3       2 C2       6 H6         60.00   118.15   107.99
           1 C1       3 C3       2 C2       7 H7         60.00   118.15  -107.99
--


            Nuclear Potential Energy             75.61977916 au

--- Stop Module: gateway at Mon May  6 17:47:41 2024 /rc=_RC_ALL_IS_WELL_ ---
*** files: xmldump
    saved to directory /data/home/nisimoto/tutorial_molcas/03

--- Start Module: seward at Mon May  6 17:47:41 2024 ---

()()()()()()()()()()()()()()()()()()()()()()()()()()()()()()()()()()()()()()()()()()()()()()()()()()

                                              &SEWARD

                                   only a single process is used
                       available to each process: 2.0 GB of memory, 1 thread?
                                             pid: 1036
()()()()()()()()()()()()()()()()()()()()()()()()()()()()()()()()()()()()()()()()()()()()()()()()()()

               SEWARD will generate:
                  Multipole Moment integrals up to order  2
                  Kinetic Energy integrals
                  Nuclear Attraction integrals (point charge)
                  One-Electron Hamiltonian integrals
                  Velocity integrals
                  Orbital angular momentum around ( 0.0000  0.0000  0.0000 )
                  Velocity quadrupole around ( 0.0000  0.0000  0.0000 )
                  Two-Electron Repulsion integrals

                   Integrals are discarded if absolute value <: 1.00E-14
                   Integral cutoff threshold is set to       <: 1.00E-16

            Nuclear Potential Energy             75.61977916 au


      Basis set specifications :
      Symmetry species         a  
      Basis functions           57


      Input file to MOLDEN was generated!

--- Stop Module: seward at Mon May  6 17:47:42 2024 /rc=_RC_ALL_IS_WELL_ ---
*** files: cyclopropane_grad.GssOrb cyclopropane_grad.guessorb.h5 cyclopropane_grad.guessorb.molden xmldump
    saved to directory /data/home/nisimoto/tutorial_molcas/03
--- Module seward spent 1 second ---

*** symbolic link created: INPORB -> cyclopropane_grad.GssOrb
--- Start Module: scf at Mon May  6 17:47:42 2024 ---

()()()()()()()()()()()()()()()()()()()()()()()()()()()()()()()()()()()()()()()()()()()()()()()()()()

                                                &SCF

                                   only a single process is used
                       available to each process: 2.0 GB of memory, 1 thread?
                                             pid: 1040
()()()()()()()()()()()()()()()()()()()()()()()()()()()()()()()()()()()()()()()()()()()()()()()()()()

++    Input section:
      --------------

      Header of the integral files:
      
       Integrals generated by Gateway/Seward, Mon May  6 17:47:42 2024


      Cartesian coordinates in Angstrom:
      -----------------------------------------------------
      No.  Label        X            Y            Z        
      -----------------------------------------------------
       1   C1        -0.87081273   0.00000000   0.00000000
       2   C2         0.43540636   0.75414595   0.00000000
       3   C3         0.43540636  -0.75414595   0.00000000
       4   H4        -1.46231984   0.00000000   0.91055200
       5   H5        -1.46231984   0.00000000  -0.91055200
       6   H6         0.73115992   1.26640613   0.91055200
       7   H7         0.73115992   1.26640613  -0.91055200
       8   H8         0.73115992  -1.26640613  -0.91055200
       9   H9         0.73115992  -1.26640613   0.91055200
      -----------------------------------------------------
      Nuclear repulsion energy =   75.61977916
--

++    Orbital specifications:
      -----------------------

      Symmetry species               1
                                     a
      Frozen orbitals                0
      Occupied orbitals             12
      Secondary orbitals            45
      Deleted orbitals               0
      Total number of orbitals      57
      Number of basis functions     57
--

      Molecular charge                           0.000

++    Optimization specifications:
      ----------------------------

      SCF Algorithm: Conventional
      Minimized density differences are used
      Number of density matrices in core                 5
      Maximum number of NDDO SCF iterations            400
      Maximum number of HF SCF iterations              400
      Threshold for SCF energy change             1.00E-09
      Threshold for density matrix                1.00E-04
      Threshold for Fock matrix                   1.50E-04
      Threshold for linear dependence             1.00E-09
      Threshold at which DIIS is turned on        1.50E-01
      Maximum depth in the DIIS procedure                5
      Maximum depth in the BFGS Hessian update          30
      Threshold at which QNR/C2DIIS is turned on  7.50E-02
      Threshold for Norm(delta) (QNR/C2DIIS)      1.00E-03
      All orbitals punched on: SCFORB
--

      Input vectors read from INPORB
      Orbital file label: *Guess orbitals


++ Convergence information
                                   SCF        iterations: Energy and convergence statistics

Iter     Tot. SCF        One-elec.       Two-elec.     Energy      Max Dij or  Max Fij      DNorm      TNorm      AccCon     Time
         Energy          Energy          Energy        Change      Delta Norm                                                in Sec.
   1  -116.783738703  -301.938900489   109.535382622   0.00E+00    2.56E-01*   1.76E-01*    4.93E+00   1.34E+02   None         0.
   2  -117.019046383  -307.983508730   115.344683184  -2.35E-01*   1.12E-01*   6.56E-02*    1.28E+00   1.38E+02   EDIIS        0.
   3  -117.050038964  -305.311816888   112.641998760  -3.10E-02*   1.68E-02*   1.93E-02*    4.74E-01   1.36E+02   c2DIIS       0.
   4  -117.058055339  -306.270430288   113.592595785  -8.02E-03*   7.55E-03*   3.45E-03*    6.20E-02   1.37E+02   QNRc2DIIS    0.
   5  -117.058219842  -306.210108075   113.532109070  -1.65E-04*   3.69E-03*   1.25E-03*    7.64E-03   1.37E+02   QNRc2DIIS    0.
   6  -117.058239302  -306.240042033   113.562023568  -1.95E-05*   5.43E-04    3.32E-04*    1.55E-03   1.37E+02   QNRc2DIIS    0.
   7  -117.058240293  -306.231784274   113.553764818  -9.92E-07*   1.44E-04    4.00E-05     4.91E-04   1.37E+02   QNRc2DIIS    0.
   8  -117.058240324  -306.231654393   113.553634906  -3.08E-08*   1.53E-05    4.14E-06     1.46E-04   1.37E+02   QNRc2DIIS    0.
   9  -117.058240325  -306.231665151   113.553645663  -3.59E-10    3.86E-07    1.50E-07     9.58E-06   1.37E+02   QNRc2DIIS    0.

       Convergence after   9 Macro Iterations
--

 *****************************************************************************************************************************
 *                                                                                                                           *
 *                                             SCF/KS-DFT Program, Final results                                             *
 *                                                                                                                           *
 *                                                                                                                           *
 *                                                                                                                           *
 *                                                       Final Results                                                       *
 *                                                                                                                           *
 *****************************************************************************************************************************

::    Total SCF energy                               -117.0582403246
      One-electron energy                            -306.2316651514
      Two-electron energy                             113.5536456634
      Nuclear repulsion energy                         75.6197791634
      Kinetic energy (interpolated)                   116.8630240905
      Virial theorem                                    1.0016704705
      Total spin, S(S+1)                                0.0000000000
      Total spin, S                                     0.0000000000
      Max non-diagonal density matrix element           0.0000003860
      Max non-diagonal Fock matrix element              0.0000000153


      All orbitals with orbital energies smaller than  E(LUMO)+0.5 are printed

++    Molecular orbitals:
      -------------------

      Title: SCF orbitals

      Molecular orbitals for symmetry species 1: a  

          Orbital            1         2         3         4         5         6         7         8         9        10    
          Energy          -11.2238  -11.2228  -11.2228   -1.1266   -0.8147   -0.8147   -0.6625   -0.6245   -0.5091   -0.5091
          Occ. No.          2.0000    2.0000    2.0000    2.0000    2.0000    2.0000    2.0000    2.0000    2.0000    2.0000

        1 C1     1s         0.5747   -0.8131    0.0000   -0.1232    0.0000    0.1468    0.0000   -0.0095    0.0000   -0.0000
        2 C1     2s         0.0163   -0.0228    0.0000    0.2320   -0.0000   -0.2782    0.0000    0.0080    0.0000   -0.0000
        3 C1     *s        -0.0044    0.0145   -0.0000    0.1615   -0.0000   -0.3316   -0.0000    0.0438   -0.0000    0.0000
        4 C1     2px        0.0004   -0.0008    0.0000    0.1116    0.0000    0.1294    0.0000   -0.3055   -0.0000    0.0000
        5 C1     *px        0.0000    0.0022   -0.0000    0.0128    0.0000    0.0291    0.0000   -0.1059   -0.0000    0.0000
        6 C1     2py        0.0000    0.0000    0.0000   -0.0000    0.1202   -0.0000    0.0000    0.0000   -0.0000    0.0000
        7 C1     *py        0.0000    0.0000    0.0016    0.0000    0.0350   -0.0000    0.0000    0.0000   -0.0000    0.0000
        8 C1     2pz       -0.0000    0.0000   -0.0000   -0.0000    0.0000    0.0000    0.2577    0.0000    0.0000   -0.3582
        9 C1     *pz        0.0000   -0.0000    0.0000    0.0000   -0.0000   -0.0000    0.1128    0.0000    0.0000   -0.2298
       10 C1     *200      -0.0009    0.0004   -0.0000    0.0111   -0.0000   -0.0010    0.0000   -0.0095    0.0000   -0.0000
       11 C1     *110      -0.0000   -0.0000   -0.0003    0.0000    0.0168   -0.0000    0.0000    0.0000   -0.0000    0.0000
       12 C1     *101       0.0000    0.0000    0.0000   -0.0000    0.0000   -0.0000   -0.0059   -0.0000   -0.0000    0.0337
       13 C1     *020      -0.0008    0.0008   -0.0000   -0.0026    0.0000    0.0061    0.0000    0.0002    0.0000   -0.0000
       14 C1     *011       0.0000    0.0000   -0.0000    0.0000   -0.0000   -0.0000    0.0000   -0.0000   -0.0081   -0.0000
       15 C1     *002      -0.0006    0.0008   -0.0000   -0.0003   -0.0000   -0.0132   -0.0000    0.0134    0.0000   -0.0000
       16 C2     1s         0.5747    0.4066    0.7042   -0.1232   -0.1271   -0.0734    0.0000   -0.0095   -0.0000    0.0000
       17 C2     2s         0.0163    0.0114    0.0197    0.2320    0.2410    0.1391    0.0000    0.0080   -0.0000    0.0000
       18 C2     *s        -0.0044   -0.0072   -0.0125    0.1615    0.2872    0.1658   -0.0000    0.0438    0.0000   -0.0000
       19 C2     2px       -0.0002   -0.0002   -0.0003   -0.0558    0.0040    0.1225   -0.0000    0.1528    0.0000    0.0000
       20 C2     *px       -0.0000    0.0018    0.0003   -0.0064   -0.0025    0.0335   -0.0000    0.0529   -0.0000    0.0000
       21 C2     2py       -0.0003   -0.0003   -0.0006   -0.0967    0.1271    0.0040   -0.0000    0.2646   -0.0000   -0.0000
       22 C2     *py       -0.0000    0.0003    0.0021   -0.0111    0.0306   -0.0025    0.0000    0.0917   -0.0000    0.0000
       23 C2     2pz       -0.0000   -0.0000   -0.0000   -0.0000   -0.0000   -0.0000    0.2577    0.0000   -0.3103    0.1791
       24 C2     *pz        0.0000    0.0000    0.0000    0.0000    0.0000    0.0000    0.1128    0.0000   -0.1990    0.1149
       25 C2     *200      -0.0008   -0.0002   -0.0007    0.0008   -0.0001   -0.0085    0.0000   -0.0022   -0.0000    0.0000
       26 C2     *110      -0.0001    0.0003    0.0002    0.0119    0.0096   -0.0042    0.0000   -0.0084    0.0000   -0.0000
       27 C2     *101       0.0000   -0.0000    0.0000    0.0000   -0.0000   -0.0000    0.0030    0.0000   -0.0111    0.0145
       28 C2     *020      -0.0009   -0.0004   -0.0004    0.0077   -0.0043    0.0059    0.0000   -0.0071   -0.0000    0.0000
       29 C2     *011       0.0000    0.0000   -0.0000    0.0000   -0.0000    0.0000    0.0051   -0.0000   -0.0273    0.0111
       30 C2     *002      -0.0006   -0.0004   -0.0007   -0.0003    0.0114    0.0066    0.0000    0.0134   -0.0000    0.0000
       31 C3     1s         0.5747    0.4065   -0.7042   -0.1232    0.1271   -0.0734   -0.0000   -0.0095   -0.0000   -0.0000
       32 C3     2s         0.0163    0.0114   -0.0197    0.2320   -0.2410    0.1391    0.0000    0.0080    0.0000    0.0000
       33 C3     *s        -0.0044   -0.0072    0.0125    0.1615   -0.2872    0.1658    0.0000    0.0438   -0.0000   -0.0000
       34 C3     2px       -0.0002   -0.0002    0.0003   -0.0558   -0.0040    0.1225   -0.0000    0.1528   -0.0000    0.0000
       35 C3     *px       -0.0000    0.0018   -0.0003   -0.0064    0.0025    0.0335   -0.0000    0.0529   -0.0000    0.0000
       36 C3     2py        0.0003    0.0003   -0.0006    0.0967    0.1271   -0.0040    0.0000   -0.2646   -0.0000    0.0000
       37 C3     *py        0.0000   -0.0003    0.0021    0.0111    0.0306    0.0025    0.0000   -0.0917    0.0000    0.0000
       38 C3     2pz       -0.0000   -0.0000    0.0000    0.0000    0.0000   -0.0000    0.2577    0.0000    0.3102    0.1791
       39 C3     *pz        0.0000    0.0000   -0.0000    0.0000   -0.0000    0.0000    0.1128   -0.0000    0.1990    0.1149
       40 C3     *200      -0.0008   -0.0002    0.0007    0.0008    0.0001   -0.0085   -0.0000   -0.0022   -0.0000   -0.0000
       41 C3     *110       0.0001   -0.0003    0.0002   -0.0119    0.0096    0.0042   -0.0000    0.0084   -0.0000    0.0000
       42 C3     *101      -0.0000   -0.0000    0.0000    0.0000   -0.0000   -0.0000    0.0030    0.0000    0.0111    0.0145
       43 C3     *020      -0.0009   -0.0004    0.0004    0.0077    0.0043    0.0059    0.0000   -0.0071   -0.0000    0.0000
       44 C3     *011      -0.0000   -0.0000   -0.0000    0.0000   -0.0000   -0.0000   -0.0051   -0.0000   -0.0273   -0.0111
       45 C3     *002      -0.0006   -0.0004    0.0007   -0.0003   -0.0114    0.0066   -0.0000    0.0134   -0.0000   -0.0000
       46 H4     1s        -0.0001   -0.0002    0.0000    0.0527   -0.0000   -0.1522    0.1199    0.1085    0.0000   -0.2103
       47 H4     *s         0.0012   -0.0019    0.0000    0.0058   -0.0000   -0.0666    0.0729    0.0833    0.0000   -0.1671
       48 H5     1s        -0.0001   -0.0002    0.0000    0.0527   -0.0000   -0.1522   -0.1199    0.1085   -0.0000    0.2103
       49 H5     *s         0.0012   -0.0019    0.0000    0.0058   -0.0000   -0.0666   -0.0729    0.0833   -0.0000    0.1671
       50 H6     1s        -0.0001    0.0001    0.0001    0.0527    0.1318    0.0761    0.1199    0.1085   -0.1821    0.1052
       51 H6     *s         0.0012    0.0009    0.0016    0.0058    0.0577    0.0333    0.0729    0.0833   -0.1447    0.0836
       52 H7     1s        -0.0001    0.0001    0.0001    0.0527    0.1318    0.0761   -0.1199    0.1085    0.1821   -0.1052
       53 H7     *s         0.0012    0.0009    0.0016    0.0058    0.0577    0.0333   -0.0729    0.0833    0.1447   -0.0836
       54 H8     1s        -0.0001    0.0001   -0.0001    0.0527   -0.1318    0.0761   -0.1199    0.1085   -0.1821   -0.1052
       55 H8     *s         0.0012    0.0009   -0.0016    0.0058   -0.0577    0.0333   -0.0729    0.0833   -0.1447   -0.0836
       56 H9     1s        -0.0001    0.0001   -0.0001    0.0527   -0.1318    0.0761    0.1199    0.1085    0.1821    0.1052
       57 H9     *s         0.0012    0.0009   -0.0016    0.0058   -0.0577    0.0333    0.0729    0.0833    0.1447    0.0836

          Orbital           11        12        13        14        15        16        17        18        19        20    
          Energy           -0.4158   -0.4158    0.2450    0.2573    0.3033    0.3033    0.3250    0.3831    0.3831    0.4279
          Occ. No.          2.0000    2.0000    0.0000    0.0000    0.0000    0.0000    0.0000    0.0000    0.0000    0.0000

        1 C1     1s         0.0000    0.0133    0.0609    0.0000    0.1436   -0.0001   -0.0000   -0.0000   -0.0000   -0.0000
        2 C1     2s        -0.0000   -0.0211   -0.0705   -0.0000   -0.0878    0.0001    0.0000    0.0000   -0.0000   -0.0000
        3 C1     *s        -0.0000   -0.1001   -1.1573   -0.0000   -2.6807    0.0021    0.0000   -0.0000    0.0000    0.0001
        4 C1     2px       -0.0000   -0.2311    0.1069    0.0000    0.0541   -0.0000   -0.0000   -0.0000    0.0000    0.0000
        5 C1     *px       -0.0000   -0.1663    0.5036    0.0000   -0.1352    0.0001    0.0000   -0.0000    0.0000    0.0001
        6 C1     2py        0.4194   -0.0000   -0.0000    0.0000    0.0000    0.0223   -0.3026   -0.0000   -0.0000   -0.0161
        7 C1     *py        0.2680   -0.0000   -0.0000    0.0000    0.0004    0.4733   -1.0103   -0.0000   -0.0000    0.8774
        8 C1     2pz        0.0000    0.0000   -0.0000    0.1878   -0.0000   -0.0000    0.0000   -0.2926    0.0125    0.0000
        9 C1     *pz       -0.0000   -0.0000   -0.0000    0.5796   -0.0000    0.0000    0.0000   -1.8174    0.0775    0.0000
       10 C1     *200       0.0000    0.0028   -0.0010   -0.0000    0.0004   -0.0000    0.0000   -0.0000    0.0000    0.0000
       11 C1     *110       0.0289   -0.0000   -0.0000   -0.0000   -0.0000   -0.0106    0.0180    0.0000    0.0000   -0.0182
       12 C1     *101       0.0000    0.0000   -0.0000    0.0275   -0.0000   -0.0000    0.0000    0.0082   -0.0003    0.0000
       13 C1     *020      -0.0000   -0.0130   -0.0020   -0.0000    0.0106   -0.0000    0.0000    0.0000   -0.0000   -0.0000
       14 C1     *011      -0.0000   -0.0000   -0.0000    0.0000    0.0000   -0.0000    0.0000   -0.0005   -0.0110    0.0000
       15 C1     *002       0.0000    0.0091    0.0060    0.0000    0.0016   -0.0000    0.0000    0.0000   -0.0000    0.0000
       16 C2     1s        -0.0115   -0.0067    0.0609    0.0000   -0.0717    0.1245   -0.0000    0.0000   -0.0000    0.0547
       17 C2     2s         0.0183    0.0105   -0.0705   -0.0000    0.0439   -0.0761    0.0000   -0.0000    0.0000    0.0084
       18 C2     *s         0.0867    0.0500   -1.1573   -0.0000    1.3385   -2.3226    0.0000    0.0000    0.0000   -1.5739
       19 C2     2px       -0.2816    0.2567   -0.0534   -0.0000   -0.0032   -0.0331   -0.2621   -0.0000    0.0000    0.1299
       20 C2     *px       -0.1881    0.1594   -0.2518   -0.0000   -0.3889   -0.1461   -0.8750   -0.0000    0.0000    0.6728
       21 C2     2py       -0.0685   -0.2816   -0.0926   -0.0000    0.0330   -0.0350    0.1513   -0.0000    0.0000    0.2089
       22 C2     *py       -0.0578   -0.1881   -0.4361   -0.0000    0.1466    0.2196    0.5052   -0.0000    0.0000    2.0425
       23 C2     2pz       -0.0000    0.0000   -0.0000    0.1878    0.0000   -0.0000    0.0000    0.1355   -0.2596    0.0000
       24 C2     *pz        0.0000    0.0000   -0.0000    0.5796    0.0000   -0.0000    0.0000    0.8416   -1.6127    0.0000
       25 C2     *200       0.0141   -0.0063   -0.0017   -0.0000   -0.0080    0.0047   -0.0078   -0.0000    0.0000   -0.0030
       26 C2     *110      -0.0047   -0.0194    0.0009   -0.0000   -0.0002   -0.0103   -0.0090    0.0000   -0.0000   -0.0074
       27 C2     *101      -0.0000   -0.0000    0.0000   -0.0137    0.0000    0.0000   -0.0000    0.0103    0.0008   -0.0000
       28 C2     *020      -0.0053    0.0114   -0.0012   -0.0000    0.0025    0.0048    0.0078   -0.0000    0.0000    0.0033
       29 C2     *011      -0.0000    0.0000    0.0000   -0.0238    0.0000    0.0000   -0.0000   -0.0016   -0.0088   -0.0000
       30 C2     *002      -0.0079   -0.0046    0.0060    0.0000   -0.0008    0.0013   -0.0000   -0.0000    0.0000   -0.0067
       31 C3     1s         0.0115   -0.0067    0.0609    0.0000   -0.0719   -0.1243    0.0000    0.0000    0.0000   -0.0547
       32 C3     2s        -0.0183    0.0105   -0.0705   -0.0000    0.0440    0.0760   -0.0000   -0.0000   -0.0000   -0.0084
       33 C3     *s        -0.0867    0.0500   -1.1573   -0.0000    1.3422    2.3205   -0.0000    0.0000   -0.0000    1.5738
       34 C3     2px        0.2816    0.2567   -0.0534   -0.0000   -0.0032    0.0331    0.2621   -0.0000    0.0000   -0.1299
       35 C3     *px        0.1881    0.1594   -0.2518   -0.0000   -0.3887    0.1467    0.8750   -0.0000    0.0000   -0.6726
       36 C3     2py       -0.0685    0.2816    0.0926    0.0000   -0.0331   -0.0350    0.1513    0.0000    0.0000    0.2088
       37 C3     *py       -0.0578    0.1881    0.4361    0.0000   -0.1462    0.2199    0.5052    0.0000   -0.0000    2.0425
       38 C3     2pz        0.0000   -0.0000   -0.0000    0.1878    0.0000    0.0000   -0.0000    0.1571    0.2471   -0.0000
       39 C3     *pz        0.0000    0.0000   -0.0000    0.5796    0.0000    0.0000   -0.0000    0.9758    1.5352   -0.0000
       40 C3     *200      -0.0141   -0.0063   -0.0017   -0.0000   -0.0080   -0.0047    0.0078    0.0000   -0.0000    0.0030
       41 C3     *110      -0.0047    0.0194   -0.0009   -0.0000    0.0002   -0.0103   -0.0090   -0.0000    0.0000   -0.0074
       42 C3     *101      -0.0000   -0.0000    0.0000   -0.0137    0.0000    0.0000   -0.0000    0.0102   -0.0016   -0.0000
       43 C3     *020       0.0053    0.0114   -0.0012   -0.0000    0.0025   -0.0048   -0.0078   -0.0000   -0.0000   -0.0033
       44 C3     *011      -0.0000   -0.0000   -0.0000    0.0238   -0.0000   -0.0000    0.0000    0.0008   -0.0089    0.0000
       45 C3     *002       0.0079   -0.0046    0.0060    0.0000   -0.0008   -0.0013    0.0000   -0.0000   -0.0000    0.0067
       46 H4     1s         0.0000    0.0872    0.0129   -0.0463    0.0022   -0.0000    0.0000   -0.0129    0.0006    0.0000
       47 H4     *s         0.0000    0.0850    0.7994   -0.8284    1.1239   -0.0009   -0.0000    1.6927   -0.0722    0.0000
       48 H5     1s         0.0000    0.0872    0.0129    0.0463    0.0022   -0.0000    0.0000    0.0129   -0.0006    0.0000
       49 H5     *s         0.0000    0.0850    0.7994    0.8284    1.1239   -0.0009   -0.0000   -1.6927    0.0722    0.0000
       50 H6     1s        -0.0755   -0.0436    0.0129   -0.0463   -0.0011    0.0019   -0.0000    0.0060   -0.0115   -0.0512
       51 H6     *s        -0.0736   -0.0425    0.7994   -0.8284   -0.5612    0.9738   -0.0000   -0.7838    1.5020   -0.7145
       52 H7     1s        -0.0755   -0.0436    0.0129    0.0463   -0.0011    0.0019   -0.0000   -0.0060    0.0115   -0.0512
       53 H7     *s        -0.0736   -0.0425    0.7994    0.8284   -0.5612    0.9738   -0.0000    0.7838   -1.5020   -0.7145
       54 H8     1s         0.0755   -0.0436    0.0129    0.0463   -0.0011   -0.0019    0.0000   -0.0069   -0.0109    0.0512
       55 H8     *s         0.0736   -0.0425    0.7994    0.8284   -0.5627   -0.9729    0.0000    0.9089    1.4299    0.7144
       56 H9     1s         0.0755   -0.0436    0.0129   -0.0463   -0.0011   -0.0019    0.0000    0.0069    0.0109    0.0512
       57 H9     *s         0.0736   -0.0425    0.7994   -0.8284   -0.5627   -0.9729    0.0000   -0.9089   -1.4299    0.7144

          Orbital           21        22    
          Energy            0.4279    0.6669
          Occ. No.          0.0000    0.0000

        1 C1     1s        -0.0631   -0.0314
        2 C1     2s        -0.0097   -0.0325
        3 C1     *s         1.8173   -0.4120
        4 C1     2px        0.2838   -0.4510
        5 C1     *px        2.4309    0.8092
        6 C1     2py        0.0000   -0.0000
        7 C1     *py       -0.0000   -0.0000
        8 C1     2pz       -0.0000    0.0000
        9 C1     *pz       -0.0000    0.0000
       10 C1     *200       0.0017   -0.0461
       11 C1     *110       0.0000   -0.0000
       12 C1     *101       0.0000    0.0000
       13 C1     *020      -0.0021   -0.0107
       14 C1     *011       0.0000    0.0000
       15 C1     *002       0.0078    0.0377
       16 C2     1s         0.0316   -0.0314
       17 C2     2s         0.0048   -0.0325
       18 C2     *s        -0.9086   -0.4120
       19 C2     2px        0.0589    0.2255
       20 C2     *px        1.2657   -0.4046
       21 C2     2py        0.1299    0.3906
       22 C2     *py        0.6726   -0.7008
       23 C2     2pz        0.0000   -0.0000
       24 C2     *pz        0.0000    0.0000
       25 C2     *200       0.0074   -0.0196
       26 C2     *110       0.0063   -0.0306
       27 C2     *101       0.0000   -0.0000
       28 C2     *020      -0.0072   -0.0373
       29 C2     *011       0.0000   -0.0000
       30 C2     *002      -0.0039    0.0377
       31 C3     1s         0.0316   -0.0314
       32 C3     2s         0.0048   -0.0325
       33 C3     *s        -0.9088   -0.4120
       34 C3     2px        0.0589    0.2255
       35 C3     *px        1.2658   -0.4046
       36 C3     2py       -0.1299   -0.3906
       37 C3     *py       -0.6728    0.7008
       38 C3     2pz       -0.0000   -0.0000
       39 C3     *pz       -0.0000   -0.0000
       40 C3     *200       0.0074   -0.0196
       41 C3     *110      -0.0063    0.0306
       42 C3     *101       0.0000   -0.0000
       43 C3     *020      -0.0072   -0.0373
       44 C3     *011       0.0000    0.0000
       45 C3     *002      -0.0039    0.0377
       46 H4     1s         0.0591    0.1622
       47 H4     *s         0.8250    0.0459
       48 H5     1s         0.0591    0.1622
       49 H5     *s         0.8250    0.0459
       50 H6     1s        -0.0295    0.1622
       51 H6     *s        -0.4124    0.0459
       52 H7     1s        -0.0295    0.1622
       53 H7     *s        -0.4124    0.0459
       54 H8     1s        -0.0295    0.1622
       55 H8     *s        -0.4125    0.0459
       56 H9     1s        -0.0295    0.1622
       57 H9     *s        -0.4125    0.0459
--


++    Molecular charges:
      ------------------

      Mulliken charges per centre and basis function type
      ---------------------------------------------------

                C1      C2      C3      H4      H5      H6      H7      H8      H9    
      1s       1.9965  1.9965  1.9965  0.5247  0.5247  0.5247  0.5247  0.5247  0.5247
      2s       0.6268  0.6268  0.6268  0.0000  0.0000  0.0000  0.0000  0.0000  0.0000
      2px      0.6609  0.6708  0.6708  0.0000  0.0000  0.0000  0.0000  0.0000  0.0000
      2pz      0.7090  0.7090  0.7090  0.0000  0.0000  0.0000  0.0000  0.0000  0.0000
      2py      0.6741  0.6642  0.6642  0.0000  0.0000  0.0000  0.0000  0.0000  0.0000
      *s       0.6156  0.6156  0.6156  0.2966  0.2966  0.2966  0.2966  0.2966  0.2966
      *px      0.2131  0.3394  0.3394  0.0000  0.0000  0.0000  0.0000  0.0000  0.0000
      *pz      0.4012  0.4012  0.4012  0.0000  0.0000  0.0000  0.0000  0.0000  0.0000
      *py      0.3815  0.2552  0.2552  0.0000  0.0000  0.0000  0.0000  0.0000  0.0000
      *200     0.0251  0.0026  0.0026  0.0000  0.0000  0.0000  0.0000  0.0000  0.0000
      *110     0.0138  0.0107  0.0107  0.0000  0.0000  0.0000  0.0000  0.0000  0.0000
      *101     0.0159  0.0050  0.0050  0.0000  0.0000  0.0000  0.0000  0.0000  0.0000
      *020    -0.0070  0.0186  0.0186  0.0000  0.0000  0.0000  0.0000  0.0000  0.0000
      *011     0.0014  0.0123  0.0123  0.0000  0.0000  0.0000  0.0000  0.0000  0.0000
      *002     0.0296  0.0296  0.0296  0.0000  0.0000  0.0000  0.0000  0.0000  0.0000
      Total    6.3573  6.3573  6.3573  0.8213  0.8213  0.8213  0.8213  0.8213  0.8213

      N-E     -0.3573 -0.3573 -0.3573  0.1787  0.1787  0.1787  0.1787  0.1787  0.1787

      Total electronic charge=   24.000000

      Total            charge=   -0.000000
--


++    Molecular properties:
      ---------------------

      Charge (e):
                      =   -0.0000
      Dipole Moment (Debye):
      Origin of the operator (Ang)=    0.0000    0.0000    0.0000
                   X=  3.6307E-11               Y= -9.2417E-14               Z= -2.2872E-13           Total=  3.6308E-11
      Quadrupole Moment (Debye*Ang):
      Origin of the operator (Ang)=    0.0000    0.0000    0.0000
                  XX= -2.0624E+01              XY=  8.4595E-14              XZ= -3.1210E-14              YY= -2.0624E+01
                  YZ= -3.4570E-14              ZZ= -1.8481E+01
      In traceless form (Debye*Ang)
                  XX= -1.0716E+00              XY=  1.2689E-13              XZ= -4.6815E-14              YY= -1.0716E+00
                  YZ= -5.1854E-14              ZZ=  2.1432E+00
--


      Input file to MOLDEN was generated!

 ###############################################################################
 ###############################################################################
 ###                                                                         ###
 ###                                                                         ###
 ###    WARNING: RunFile label nBas                                          ###
 ###    was used       72 times                                              ###
 ###                                                                         ###
 ###                                                                         ###
 ###############################################################################
 ###############################################################################
--- Stop Module: scf at Mon May  6 17:47:43 2024 /rc=_RC_ALL_IS_WELL_ ---
*** files: cyclopropane_grad.scf.molden cyclopropane_grad.ScfOrb cyclopropane_grad.scf.h5 xmldump
    saved to directory /data/home/nisimoto/tutorial_molcas/03

*** symbolic link created: INPORB -> cyclopropane_grad.ScfOrb
--- Start Module: alaska at Mon May  6 17:47:43 2024 ---

()()()()()()()()()()()()()()()()()()()()()()()()()()()()()()()()()()()()()()()()()()()()()()()()()()

                                              &ALASKA

                                   only a single process is used
                       available to each process: 2.0 GB of memory, 1 thread?
                                             pid: 1044
()()()()()()()()()()()()()()()()()()()()()()()()()()()()()()()()()()()()()()()()()()()()()()()()()()


                     Threshold for contributions to the gradient: 1.000E-07


                    ********************************************
                    * Symmetry Adapted Cartesian Displacements *
                    ********************************************


           Irreducible representation : a  
           Basis function(s) of irrep: x, y, xy, Rz, z, xz, Ry, yz, Rx, I                                              

 Basis Label        Type   Center Phase
   1   C1           x         1     1
   2   C1           y         1     1
   3   C1           z         1     1
   4   C2           x         2     1
   5   C2           y         2     1
   6   C2           z         2     1
   7   C3           x         3     1
   8   C3           y         3     1
   9   C3           z         3     1
  10   H4           x         4     1
  11   H4           y         4     1
  12   H4           z         4     1
  13   H5           x         5     1
  14   H5           y         5     1
  15   H5           z         5     1
  16   H6           x         6     1
  17   H6           y         6     1
  18   H6           z         6     1
  19   H7           x         7     1
  20   H7           y         7     1
  21   H7           z         7     1
  22   H8           x         8     1
  23   H8           y         8     1
  24   H8           z         8     1
  25   H9           x         9     1
  26   H9           y         9     1
  27   H9           z         9     1

                     No automatic utilization of translational and rotational invariance of the energy is employed.


 **************************************************************************************************************
 *                                                                                                            *
 *                                     The Nuclear Repulsion Contribution                                     *
 *                                                                                                            *
 **************************************************************************************************************

  Irreducible representation: a  
 ------------------------------------------------------------------------------------------
                              X                       Y                       Z
 ------------------------------------------------------------------------------------------
  C1                7.08581234971570E+00    0.00000000000000E+00    0.00000000000000E+00
  C2               -3.54290617355713E+00   -6.13649349992209E+00    0.00000000000000E+00
  C3               -3.54290617355713E+00    6.13649349992209E+00    0.00000000000000E+00
  H4                1.46292309683214E+00    0.00000000000000E+00   -1.58684845108983E+00
  H5                1.46292309683214E+00    0.00000000000000E+00    1.58684845108983E+00
  H6               -7.31461549066429E-01   -1.26692856533982E+00   -1.58684845273946E+00
  H7               -7.31461549066429E-01   -1.26692856533982E+00    1.58684845273946E+00
  H8               -7.31461549066429E-01    1.26692856533982E+00    1.58684845273946E+00
  H9               -7.31461549066429E-01    1.26692856533982E+00   -1.58684845273946E+00
 ------------------------------------------------------------------------------------------


 **************************************************************************************************************
 *                                                                                                            *
 *                                         Total Nuclear Contribution                                         *
 *                                                                                                            *
 **************************************************************************************************************

  Irreducible representation: a  
 ------------------------------------------------------------------------------------------
                              X                       Y                       Z
 ------------------------------------------------------------------------------------------
  C1                7.08581234971570E+00    0.00000000000000E+00    0.00000000000000E+00
  C2               -3.54290617355713E+00   -6.13649349992209E+00    0.00000000000000E+00
  C3               -3.54290617355713E+00    6.13649349992209E+00    0.00000000000000E+00
  H4                1.46292309683214E+00    0.00000000000000E+00   -1.58684845108983E+00
  H5                1.46292309683214E+00    0.00000000000000E+00    1.58684845108983E+00
  H6               -7.31461549066429E-01   -1.26692856533982E+00   -1.58684845273946E+00
  H7               -7.31461549066429E-01   -1.26692856533982E+00    1.58684845273946E+00
  H8               -7.31461549066429E-01    1.26692856533982E+00    1.58684845273946E+00
  H9               -7.31461549066429E-01    1.26692856533982E+00   -1.58684845273946E+00
 ------------------------------------------------------------------------------------------


 **************************************************************************************************************
 *                                                                                                            *
 *                                      The Renormalization Contribution                                      *
 *                                                                                                            *
 **************************************************************************************************************

  Irreducible representation: a  
 ------------------------------------------------------------------------------------------
                              X                       Y                       Z
 ------------------------------------------------------------------------------------------
  C1               -3.87211710676275E-02    8.75987921523241E-14    2.48801596458483E-14
  C2                1.93605854517470E-02    3.35335181534669E-02    6.46739250559835E-14
  C3                1.93605854520241E-02   -3.35335181536374E-02    4.70240166250413E-14
  H4               -1.05405517099440E-01   -1.00791770762942E-14    1.71017595350359E-01
  H5               -1.05405517099452E-01   -1.03759232109035E-14   -1.71017595350408E-01
  H6                5.27027585907074E-02    9.12838553266841E-02    1.71017595549353E-01
  H7                5.27027585906964E-02    9.12838553266959E-02   -1.71017595549381E-01
  H8                5.27027585906734E-02   -9.12838553266413E-02   -1.71017595549350E-01
  H9                5.27027585906708E-02   -9.12838553266355E-02    1.71017595549291E-01
 ------------------------------------------------------------------------------------------


 **************************************************************************************************************
 *                                                                                                            *
 *                                      The Kinetic Energy Contribution                                       *
 *                                                                                                            *
 **************************************************************************************************************

  Irreducible representation: a  
 ------------------------------------------------------------------------------------------
                              X                       Y                       Z
 ------------------------------------------------------------------------------------------
  C1                2.50628096602902E-01   -5.98756883917612E-14   -2.36965530748048E-14
  C2               -1.25314048009441E-01   -2.17050298661062E-01   -2.68208171600934E-14
  C3               -1.25314048009513E-01    2.17050298661165E-01    4.64905891561784E-16
  H4                2.33948725669691E-01    4.38776619204884E-15   -3.56393012454603E-01
  H5                2.33948725669702E-01   -1.24859432688862E-15    3.56393012454625E-01
  H6               -1.16974362980838E-01   -2.02605539384388E-01   -3.56393012968819E-01
  H7               -1.16974362980837E-01   -2.02605539384401E-01    3.56393012968830E-01
  H8               -1.16974362980831E-01    2.02605539384376E-01    3.56393012968817E-01
  H9               -1.16974362980834E-01    2.02605539384368E-01   -3.56393012968800E-01
 ------------------------------------------------------------------------------------------


 **************************************************************************************************************
 *                                                                                                            *
 *                                    The Nuclear Attraction Contribution                                     *
 *                                                                                                            *
 **************************************************************************************************************

  Irreducible representation: a  
 ------------------------------------------------------------------------------------------
                              X                       Y                       Z
 ------------------------------------------------------------------------------------------
  C1               -1.33321155150608E+01    1.00763841714979E-12    5.86392046031392E-13
  C2                6.66605775493660E+00    1.15459507301457E+01    6.96512292286400E-13
  C3                6.66605775493885E+00   -1.15459507301478E+01    2.73114864057789E-14
  H4               -3.69411053398911E+00   -9.10105324436472E-14    4.59596647383859E+00
  H5               -3.69411053398937E+00    4.25423585248552E-14   -4.59596647383916E+00
  H6                1.84705526829108E+00    3.19919356287256E+00    4.59596647866002E+00
  H7                1.84705526829103E+00    3.19919356287285E+00   -4.59596647866039E+00
  H8                1.84705526829086E+00   -3.19919356287223E+00   -4.59596647866003E+00
  H9                1.84705526829087E+00   -3.19919356287204E+00    4.59596647865967E+00
 ------------------------------------------------------------------------------------------

 Conventional ERI gradients!

 **************************************************************************************************************
 *                                                                                                            *
 *                                         Two-electron Contribution                                          *
 *                                                                                                            *
 **************************************************************************************************************

  Irreducible representation: a  
 ------------------------------------------------------------------------------------------
                              X                       Y                       Z
 ------------------------------------------------------------------------------------------
  C1                5.95418366338241E+00   -9.12872797915586E-13   -5.08717522181837E-13
  C2               -2.97709184563770E+00   -5.15647432048919E+00   -6.13097385495720E-13
  C3               -2.97709184563953E+00    5.15647432049110E+00   -1.47022151397724E-14
  H4                1.88761120392941E+00    8.08130689103348E-14   -2.47560560978771E+00
  H5                1.88761120392963E+00   -3.98133132364920E-14    2.47560560978821E+00
  H6               -9.43805594991144E-01   -1.63471924762370E+00   -2.47560561286646E+00
  H7               -9.43805594991096E-01   -1.63471924762396E+00    2.47560561286679E+00
  H8               -9.43805594990956E-01    1.63471924762342E+00    2.47560561286647E+00
  H9               -9.43805594990961E-01    1.63471924762325E+00   -2.47560561286617E+00
 ------------------------------------------------------------------------------------------


 **************************************************
 *                                                *
 *              Molecular gradients               *
 *                                                *
 **************************************************

  Irreducible representation: a  
 ------------------------------------------------------------------------------------------
                              X                       Y                       Z
 ------------------------------------------------------------------------------------------
  C1               -2.77023429214296E-03   -5.27088613098796E-14    2.90978111289024E-14
  C2                1.38510228057198E-03    2.39909291992291E-03   -8.07983542539751E-15
  C3                1.38510228065236E-03   -2.39909291983231E-03   -3.39498394674731E-14
  H4               -4.22199045843996E-03    4.26947973503067E-15    6.10180515608860E-03
  H5               -4.22199045845240E-03    1.18563741723782E-14   -6.10180515609171E-03
  H6                2.11100266196240E-03    3.65635519796603E-03    6.10180453592601E-03
  H7                2.11100266197439E-03    3.65635519797936E-03   -6.10180453593800E-03
  H8                2.11100266197395E-03   -3.65635519797691E-03   -6.10180453593223E-03
  H9                2.11100266197328E-03   -3.65635519797203E-03    6.10180453595222E-03
 ------------------------------------------------------------------------------------------

--- Stop Module: alaska at Mon May  6 17:47:44 2024 /rc=_RC_ALL_IS_WELL_ ---
*** files: xmldump
    saved to directory /data/home/nisimoto/tutorial_molcas/03

.##################.
.# Happy landing! #.
.##################.

    Timing: Wall=2.78 User=2.54 System=0.23
*****************************************************
*** WorkDir at /dev/shm/cyclopropane_grad cleaned ***
*****************************************************
