   This run of MOLCAS is using the pymolcas driver

                             OPE
                             OPE          NMOL  CASOP  ENMOLC A   SO
                 OPE        NMOLC        AS  OP EN  MO LC     AS  OP
                OPENM       OL CA        SO  PE NM  OL CA     SOP EN
                OP EN      MO   LC       AS  OP ENMOL  CASO   PENMOL
                OP  EN     MO   LC       AS  OP EN     MO     LC ASO
               OP   E  NMOL  C  AS       OP  EN MO     LC     AS  OP
               OP  E   NMO   LC AS        OPEN  MO     LCASOP EN   M
               O  PEN   MO  LCA  SO
            OPE   NMO   L   CAS    OP
        OPENMOL  CASOP     ENMOL   CASOPE
     OPENMOLCA   SOPENMOLCASOPEN   MOLCASOPE
    OPENMOLCAS   OP           EN   MOL    CAS
    OPENMOLCAS       OP  ENM        O     LCA
    OPENMOLCAS    OPEN  MOLCASO     P  E  NMO
    OPENMOLCAS     OP               E  N  MOL
    OPENMOLCA   SO           PENM   O  L  CAS    OPEN    MO    LCAS
    OPENMOLCA   SOP           ENM   O  L  CAS   OP  EN  MOLC  AS   O
    OPENMOLCA   SOPE           NM      O  LCA   S      OP  EN MO
    OPENMOLC                AS         O  PEN   M      OL  CA  SOPE
    OPENMO        LCASOPE  NMOL        C  ASO   P      ENMOLC     AS
    OPE     NMO      LCA  SO     P     E   NM   OL  CA SO  PE N   MO
          OPENMOLCA            SOPE   NMO        LCAS  O    P  ENMO
     OPENMOLCASOPENMOLCASOPENMOLCASOPENMOLCA
        OPENMOLCASOPENMOLCASOPENMOLCASOPE
            OPENMOLCASOPENMOLCASOPENM
               OPENMOLCASOPENMOLCA        version: v24.02
                   OPENMOLCASO
                       OPE                tag:

 OpenMolcas is free software; you can redistribute it and/or modify it
 under the terms of the GNU Lesser General Public License version 2.1.
 OpenMolcas is distributed in the hope that it will be useful, but it
 is provided "as is" and without any express or implied warranties.
 For more details see the full text of the license in the file
 LICENSE or in <http://www.gnu.org/licenses/>.

                 Copyright (C) The OpenMolcas Authors
           For the author list and the recommended citation,
                   consult the file CONTRIBUTORS.md

           *************************************************
           * pymolcas version py2.10                       *
           *   build 3068ae8b88c9345ec6cfef6fef7f1169      *
           *   (after the EMIL interpreter by V. Veryazov) *
           *************************************************

configuration info
------------------
Host name: yn1.fukui.kyoto-u.ac.jp (Linux)
C Compiler ID: GNU
C flags: -std=gnu99
Fortran Compiler ID: GNU
Fortran flags: -fno-aggressive-loop-optimizations -cpp -fdefault-integer-8 -fmax-stack-var-size=1048576
Definitions: _WARNING_WORKAROUND_;_MOLCAS_;_I8_;_LINUX_
Parallel: OFF (GA=OFF)


   ------------------------------------------------------------------
  |
  |              Project: b
  |       Submitted from: /data/home/nisimoto/tutorial_molcas/06
  |         Scratch area: /dev/shm/b
  |      Save outputs to: /data/home/nisimoto/tutorial_molcas/06
  |               Molcas: /home/nisimoto/molcas/v24.02/builds/gnu_dev
  |
  | Scratch area is empty
  |
  |       MOLCAS_DRIVER = /data/home/nisimoto/bin/pymolcas
  | MOLCAS_KEEP_WORKDIR = NO
  |       MOLCAS_NPROCS = 1
  |       MOLCAS_SOURCE = /home/nisimoto/molcas/v24.02/builds/gnu_dev
  |    MOLCAS_STRUCTURE = 0
  |
   ------------------------------------------------------------------

++ ---------   Input file   ---------

&GATEWAY
  Coord
  12
  symmetry d6h
  C        0.000000000     -1.396328944      0.000000000
  C       -1.209256337     -0.698164472      0.000000000
  C        1.209256337     -0.698164472      0.000000000
  H       -2.150060743     -1.241338149      0.000000000
  H        2.150060743     -1.241338149      0.000000000
  C       -1.209256337      0.698164472      0.000000000
  C        1.209256337      0.698164472      0.000000000
  H       -2.150060743      1.241338149      0.000000000
  H        2.150060743      1.241338149      0.000000000
  C        0.000000000      1.396328944      0.000000000
  H        0.000000000      2.482676297      0.000000000
  H        0.000000000     -2.482676297      0.000000000
  Basis = 6-31G*
  Group = C1
  RICD

&SEWARD

&SCF

&RASSCF
  Inactive = 18
  RAS2   = 6
  nActEl = 6 0 0

-- ----------------------------------

--- Start Module: gateway at Sat Jun  1 07:28:58 2024 ---

()()()()()()()()()()()()()()()()()()()()()()()()()()()()()()()()()()()()()()()()()()()()()()()()()()

                                              &GATEWAY

                                   only a single process is used
                       available to each process: 2.0 GB of memory, 1 thread?
                                             pid: 12018
()()()()()()()()()()()()()()()()()()()()()()()()()()()()()()()()()()()()()()()()()()()()()()()()()()


++    Symmetry information:
      ---------------------

                    Character Table for C1 

                             E  
                    a        1  x, y, xy, Rz, z, xz, Ry, yz, Rx, I
--


++    Basis set information:
      ----------------------


      Basis set label: C.6-31G**....

      Electronic valence basis set:
      ------------------
      Associated Effective Charge   6.000000 au
      Associated Actual Charge      6.000000 au
      Nuclear Model: Point charge

      Shell  nPrim  nBasis  Cartesian Spherical Contaminant
         s      10       3        X                  
         p       4       2        X                  
         d       1       1        X                  


      Basis set label: H.6-31G....

      Electronic valence basis set:
      ------------------
      Associated Effective Charge   1.000000 au
      Associated Actual Charge      1.000000 au
      Nuclear Model: Point charge

      Shell  nPrim  nBasis  Cartesian Spherical Contaminant
         s       4       2        X                  


      Basis set label: C.6-31G**....

      Electronic valence basis set:
      ------------------
      Associated Effective Charge   6.000000 au
      Associated Actual Charge      6.000000 au
      Nuclear Model: Point charge

      Shell  nPrim  nBasis  Cartesian Spherical Contaminant
         s      10       3        X                  
         p       4       2        X                  
         d       1       1        X                  


      Basis set label: H.6-31G....

      Electronic valence basis set:
      ------------------
      Associated Effective Charge   1.000000 au
      Associated Actual Charge      1.000000 au
      Nuclear Model: Point charge

      Shell  nPrim  nBasis  Cartesian Spherical Contaminant
         s       4       2        X                  


      Basis set label: C.6-31G**....

      Electronic valence basis set:
      ------------------
      Associated Effective Charge   6.000000 au
      Associated Actual Charge      6.000000 au
      Nuclear Model: Point charge

      Shell  nPrim  nBasis  Cartesian Spherical Contaminant
         s      10       3        X                  
         p       4       2        X                  
         d       1       1        X                  


      Basis set label: H.6-31G....

      Electronic valence basis set:
      ------------------
      Associated Effective Charge   1.000000 au
      Associated Actual Charge      1.000000 au
      Nuclear Model: Point charge

      Shell  nPrim  nBasis  Cartesian Spherical Contaminant
         s       4       2        X                  
--


++    Molecular structure info:
      -------------------------

                    ************************************************ 
                    **** Cartesian Coordinates / Bohr, Angstrom **** 
                    ************************************************ 

     Center  Label                x              y              z                     x              y              z
        1      C1               0.000000      -2.638679       0.000000              0.000000      -1.396329       0.000000
        2      C2              -2.285163      -1.319340       0.000000             -1.209256      -0.698164       0.000000
        3      C3               2.285163      -1.319340       0.000000              1.209256      -0.698164       0.000000
        4      H4              -4.063026      -2.345789       0.000000             -2.150061      -1.241338       0.000000
        5      H5               4.063026      -2.345789       0.000000              2.150061      -1.241338       0.000000
        6      C6              -2.285163       1.319340       0.000000             -1.209256       0.698164       0.000000
        7      C7               2.285163       1.319340       0.000000              1.209256       0.698164       0.000000
        8      H8              -4.063026       2.345789       0.000000             -2.150061       1.241338       0.000000
        9      H9               4.063026       2.345789       0.000000              2.150061       1.241338       0.000000
       10      C10              0.000000       2.638679       0.000000              0.000000       1.396329       0.000000
       11      H11              0.000000       4.691578       0.000000              0.000000       2.482676       0.000000
       12      H12              0.000000      -4.691578       0.000000              0.000000      -2.482676       0.000000

                    *************************************** 
                    *    InterNuclear Distances / Bohr    * 
                    *************************************** 

               1 C1            2 C2            3 C3            4 H4            5 H5            6 C6    
    1 C1       0.000000
    2 C2       2.638679        0.000000
    3 C3       2.638679        4.570327        0.000000
    4 H4       4.073569        2.052899        6.430638        0.000000
    5 H5       4.073569        6.430638        2.052899        8.126052        0.000000
    6 C6       4.570327        2.638679        5.277359        4.073569        7.330258        0.000000
    7 C7       4.570327        5.277359        2.638679        7.330258        4.073569        4.570327
    8 H8       6.430638        4.073569        7.330258        4.691578        9.383157        2.052899
    9 H9       6.430638        7.330258        4.073569        9.383157        4.691578        6.430638
   10 C10      5.277359        4.570327        4.570327        6.430638        6.430638        2.638679
   11 H11      7.330258        6.430638        6.430638        8.126052        8.126052        4.073569
   12 H12      2.052899        4.073569        4.073569        4.691578        4.691578        6.430638

               7 C7            8 H8            9 H9           10 C10          11 H11          12 H12   
    7 C7       0.000000
    8 H8       6.430638        0.000000
    9 H9       2.052899        8.126052        0.000000
   10 C10      2.638679        4.073569        4.073569        0.000000
   11 H11      4.073569        4.691578        4.691578        2.052899        0.000000
   12 H12      6.430638        8.126052        8.126052        7.330258        9.383157        0.000000

                    ******************************************* 
                    *    InterNuclear Distances / Angstrom    * 
                    ******************************************* 

               1 C1            2 C2            3 C3            4 H4            5 H5            6 C6    
    1 C1       0.000000
    2 C2       1.396329        0.000000
    3 C3       1.396329        2.418513        0.000000
    4 H4       2.155640        1.086347        3.402947        0.000000
    5 H5       2.155640        3.402947        1.086347        4.300121        0.000000
    6 C6       2.418513        1.396329        2.792658        2.155640        3.879005        0.000000
    7 C7       2.418513        2.792658        1.396329        3.879005        2.155640        2.418513
    8 H8       3.402947        2.155640        3.879005        2.482676        4.965353        1.086347
    9 H9       3.402947        3.879005        2.155640        4.965353        2.482676        3.402947
   10 C10      2.792658        2.418513        2.418513        3.402947        3.402947        1.396329
   11 H11      3.879005        3.402947        3.402947        4.300121        4.300121        2.155640
   12 H12      1.086347        2.155640        2.155640        2.482676        2.482676        3.402947

               7 C7            8 H8            9 H9           10 C10          11 H11          12 H12   
    7 C7       0.000000
    8 H8       3.402947        0.000000
    9 H9       1.086347        4.300121        0.000000
   10 C10      1.396329        2.155640        2.155640        0.000000
   11 H11      2.155640        2.482676        2.482676        1.086347        0.000000
   12 H12      3.402947        4.300121        4.300121        3.879005        4.965353        0.000000

                    ************************************** 
                    *    Valence Bond Angles / Degree    * 
                    ************************************** 
                          Atom centers                 Phi
                      2 C2       1 C1       3 C3       120.00
                      2 C2       1 C1      12 H12      120.00
                      3 C3       1 C1      12 H12      120.00
                      1 C1       2 C2       4 H4       120.00
                      1 C1       2 C2       6 C6       120.00
                      4 H4       2 C2       6 C6       120.00
                      1 C1       3 C3       5 H5       120.00
                      1 C1       3 C3       7 C7       120.00
                      5 H5       3 C3       7 C7       120.00
                      2 C2       6 C6       8 H8       120.00
                      2 C2       6 C6      10 C10      120.00
                      8 H8       6 C6      10 C10      120.00
                      3 C3       7 C7       9 H9       120.00
                      3 C3       7 C7      10 C10      120.00
                      9 H9       7 C7      10 C10      120.00
                      6 C6      10 C10      7 C7       120.00
                      6 C6      10 C10     11 H11      120.00
                      7 C7      10 C10     11 H11      120.00

           ***************************************************************
           *              Valence Dihedral Angles / Degree               *
           ***************************************************************
                    Atom centers                       Phi1     Phi2     Theta 
           3 C3       1 C1       2 C2       4 H4        120.00   120.00  -180.00
           3 C3       1 C1       2 C2       6 C6        120.00   120.00    -0.00
           2 C2       1 C1       3 C3       5 H5        120.00   120.00  -180.00
           2 C2       1 C1       3 C3       7 C7        120.00   120.00    -0.00
           4 H4       2 C2       1 C1      12 H12       120.00   120.00    -0.00
           6 C6       2 C2       1 C1      12 H12       120.00   120.00  -180.00
           1 C1       2 C2       6 C6       8 H8        120.00   120.00  -180.00
           1 C1       2 C2       6 C6      10 C10       120.00   120.00    -0.00
           4 H4       2 C2       6 C6       8 H8        120.00   120.00    -0.00
           4 H4       2 C2       6 C6      10 C10       120.00   120.00  -180.00
           5 H5       3 C3       1 C1      12 H12       120.00   120.00     0.00
           7 C7       3 C3       1 C1      12 H12       120.00   120.00  -180.00
           1 C1       3 C3       7 C7       9 H9        120.00   120.00  -180.00
           1 C1       3 C3       7 C7      10 C10       120.00   120.00    -0.00
           5 H5       3 C3       7 C7       9 H9        120.00   120.00    -0.00
           5 H5       3 C3       7 C7      10 C10       120.00   120.00  -180.00
           2 C2       6 C6      10 C10      7 C7        120.00   120.00    -0.00
           2 C2       6 C6      10 C10     11 H11       120.00   120.00  -180.00
           8 H8       6 C6      10 C10     11 H11       120.00   120.00    -0.00
           3 C3       7 C7      10 C10      6 C6        120.00   120.00    -0.00
           3 C3       7 C7      10 C10     11 H11       120.00   120.00  -180.00
           9 H9       7 C7      10 C10     11 H11       120.00   120.00    -0.00
           7 C7      10 C10      6 C6       8 H8        120.00   120.00  -180.00
           6 C6      10 C10      7 C7       9 H9        120.00   120.00  -180.00
--


            Nuclear Potential Energy            203.24093192 au

--- Stop Module: gateway at Sat Jun  1 07:28:59 2024 /rc=_RC_ALL_IS_WELL_ ---
*** files: b.RICDLib xmldump
    saved to directory /data/home/nisimoto/tutorial_molcas/06

--- Start Module: seward at Sat Jun  1 07:28:59 2024 ---

()()()()()()()()()()()()()()()()()()()()()()()()()()()()()()()()()()()()()()()()()()()()()()()()()()

                                              &SEWARD

                                   only a single process is used
                       available to each process: 2.0 GB of memory, 1 thread?
                                             pid: 12022
()()()()()()()()()()()()()()()()()()()()()()()()()()()()()()()()()()()()()()()()()()()()()()()()()()

               SEWARD will generate:
                  Multipole Moment integrals up to order  2
                  Kinetic Energy integrals
                  Nuclear Attraction integrals (point charge)
                  One-Electron Hamiltonian integrals
                  Velocity integrals
                  Orbital angular momentum around ( 0.0000  0.0000  0.0000 )
                  Velocity quadrupole around ( 0.0000  0.0000  0.0000 )
                  RI decomposed two-electron repulsion integrals stored Cholesky style
                   - acCD auxiliary basis
                   - CD Threshold:   0.10E-03

                   Integrals are discarded if absolute value <: 1.00E-14
                   Integral cutoff threshold is set to       <: 1.00E-16

            Nuclear Potential Energy            203.24093192 au


      Basis set specifications :
      Symmetry species         a  
      Basis functions          102


      Input file to MOLDEN was generated!

--- Stop Module: seward at Sat Jun  1 07:29:01 2024 /rc=_RC_ALL_IS_WELL_ ---
*** files: b.GssOrb b.guessorb.h5 b.guessorb.molden xmldump
    saved to directory /data/home/nisimoto/tutorial_molcas/06
--- Module seward spent 1 second ---

*** symbolic link created: INPORB -> b.GssOrb
--- Start Module: scf at Sat Jun  1 07:29:01 2024 ---

()()()()()()()()()()()()()()()()()()()()()()()()()()()()()()()()()()()()()()()()()()()()()()()()()()

                                                &SCF

                                   only a single process is used
                       available to each process: 2.0 GB of memory, 1 thread?
                                             pid: 12037
()()()()()()()()()()()()()()()()()()()()()()()()()()()()()()()()()()()()()()()()()()()()()()()()()()

++    Input section:
      --------------

      Header of the integral files:
      
       Integrals generated by Gateway/Seward, Sat Jun  1 07:28:59 2024


      Cartesian coordinates in Angstrom:
      -----------------------------------------------------
      No.  Label        X            Y            Z        
      -----------------------------------------------------
       1   C1         0.00000000  -1.39632894   0.00000000
       2   C2        -1.20925634  -0.69816447   0.00000000
       3   C3         1.20925634  -0.69816447   0.00000000
       4   H4        -2.15006074  -1.24133815   0.00000000
       5   H5         2.15006074  -1.24133815   0.00000000
       6   C6        -1.20925634   0.69816447   0.00000000
       7   C7         1.20925634   0.69816447   0.00000000
       8   H8        -2.15006074   1.24133815   0.00000000
       9   H9         2.15006074   1.24133815   0.00000000
      10   C10        0.00000000   1.39632894   0.00000000
      11   H11        0.00000000   2.48267630   0.00000000
      12   H12        0.00000000  -2.48267630   0.00000000
      -----------------------------------------------------
      Nuclear repulsion energy =  203.24093192
--

++    Orbital specifications:
      -----------------------

      Symmetry species               1
                                     a
      Frozen orbitals                0
      Occupied orbitals             21
      Secondary orbitals            81
      Deleted orbitals               0
      Total number of orbitals     102
      Number of basis functions    102
--

      Molecular charge                           0.000

++    Optimization specifications:
      ----------------------------

      SCF Algorithm: LK-RI/DF
      LK screening threshold:                     4.50E-02
      Local-Exchange (LK) algorithm.
       - the density matrix is decomposed
      The actual AO density is used
      Number of density matrices in core                 5
      Maximum number of NDDO SCF iterations            400
      Maximum number of HF SCF iterations              400
      Threshold for SCF energy change             1.00E-09
      Threshold for density matrix                1.00E-04
      Threshold for Fock matrix                   1.50E-04
      Threshold for linear dependence             1.00E-09
      Threshold at which DIIS is turned on        1.50E-01
      Maximum depth in the DIIS procedure                5
      Maximum depth in the BFGS Hessian update          30
      Threshold at which QNR/C2DIIS is turned on  7.50E-02
      Threshold for Norm(delta) (QNR/C2DIIS)      1.00E-03
      All orbitals punched on: SCFORB
--

      Input vectors read from INPORB
      Orbital file label: *Guess orbitals


++ Convergence information
                                   SCF        iterations: Energy and convergence statistics

Iter     Tot. SCF        One-elec.       Two-elec.     Energy      Max Dij or  Max Fij      DNorm      TNorm      AccCon     Time
         Energy          Energy          Energy        Change      Delta Norm                                                in Sec.
   1  -230.298440801  -706.471912528   272.932539811   0.00E+00    2.16E-01*   1.43E-01*    6.84E+00   2.63E+02   None         0.
   2  -230.665006874  -715.121786570   281.215847780  -3.67E-01*   1.13E-01*   6.70E-02*    6.88E+00   2.67E+02   EDIIS        0.
   3  -230.696428425  -712.085120675   278.147760334  -3.14E-02*   2.19E-02*   1.81E-02*    6.86E+00   2.65E+02   c2DIIS       0.
   4  -230.701382007  -713.127220307   279.184906385  -4.95E-03*   1.04E-02*   5.27E-03*    6.88E+00   2.66E+02   QNRc2DIIS    0.
   5  -230.701668806  -712.977366578   279.034765858  -2.87E-04*   4.37E-03*   1.89E-03*    6.88E+00   2.66E+02   QNRc2DIIS    0.
   6  -230.701704958  -713.032214824   279.089577951  -3.62E-05*   2.57E-04    1.43E-04     6.88E+00   2.66E+02   QNRc2DIIS    0.
   7  -230.701705186  -713.028029855   279.085392754  -2.28E-07*   4.73E-05    2.23E-05     6.88E+00   2.66E+02   QNRc2DIIS    0.
   8  -230.701705191  -713.028027886   279.085390780  -4.93E-09*   2.91E-06    8.48E-07     6.88E+00   2.66E+02   QNRc2DIIS    0.
   9  -230.701705191  -713.028024242   279.085387135  -2.48E-10    6.88E-07    1.57E-07     6.88E+00   2.66E+02   QNRc2DIIS    0.

       Convergence after   9 Macro Iterations
--

 *****************************************************************************************************************************
 *                                                                                                                           *
 *                                             SCF/KS-DFT Program, Final results                                             *
 *                                                                                                                           *
 *                                                                                                                           *
 *                                                                                                                           *
 *                                                       Final Results                                                       *
 *                                                                                                                           *
 *****************************************************************************************************************************

::    Total SCF energy                               -230.7017051913
      One-electron energy                            -713.0280242418
      Two-electron energy                             279.0853871352
      Nuclear repulsion energy                        203.2409319153
      Kinetic energy (interpolated)                   230.2443810822
      Virial theorem                                    1.0019862552
      Total spin, S(S+1)                                0.0000000000
      Total spin, S                                     0.0000000000
      Max non-diagonal density matrix element           0.0000004217
      Max non-diagonal Fock matrix element              0.0000000431


      All orbitals with orbital energies smaller than  E(LUMO)+0.5 are printed

++    Molecular orbitals:
      -------------------

      Title: SCF orbitals

      Molecular orbitals for symmetry species 1: a  

          Orbital            1         2         3         4         5         6         7         8         9        10    
          Energy          -11.2341  -11.2335  -11.2335  -11.2323  -11.2323  -11.2318   -1.1418   -1.0073   -1.0073   -0.8167
          Occ. No.          2.0000    2.0000    2.0000    2.0000    2.0000    2.0000    2.0000    2.0000    2.0000    2.0000

        1 C1     1s         0.4063   -0.4601    0.3443    0.4600   -0.3450   -0.4068   -0.0923    0.1188   -0.0479   -0.0799
        2 C1     2s         0.0110   -0.0128    0.0096    0.0129   -0.0096   -0.0116    0.1752   -0.2292    0.0923    0.1595
        3 C1     *s        -0.0022    0.0040   -0.0030   -0.0078    0.0058    0.0152    0.1121   -0.1786    0.0719    0.1348
        4 C1     2px        0.0000    0.0001    0.0001    0.0001    0.0001   -0.0000   -0.0000   -0.0428   -0.1063    0.1236
        5 C1     *px       -0.0000   -0.0007   -0.0010   -0.0007   -0.0010    0.0000   -0.0000   -0.0063   -0.0157    0.0315
        6 C1     2py       -0.0000   -0.0001    0.0001    0.0002   -0.0001   -0.0002    0.0593   -0.0252    0.0101   -0.0514
        7 C1     *py        0.0003    0.0002   -0.0001   -0.0013    0.0010    0.0055    0.0067    0.0043   -0.0017   -0.0460
        8 C1     2pz       -0.0000   -0.0000   -0.0000    0.0000   -0.0000    0.0000    0.0000   -0.0000    0.0000   -0.0000
        9 C1     *pz       -0.0000   -0.0000    0.0000   -0.0000   -0.0000   -0.0000   -0.0000    0.0000    0.0000   -0.0000
       10 C1     *200      -0.0005    0.0005   -0.0004   -0.0003    0.0002    0.0001    0.0048   -0.0054    0.0022    0.0004
       11 C1     *110       0.0000    0.0000    0.0000    0.0001    0.0001   -0.0000   -0.0000   -0.0044   -0.0110    0.0074
       12 C1     *101      -0.0000    0.0000    0.0000   -0.0000   -0.0000    0.0000   -0.0000    0.0000    0.0000    0.0000
       13 C1     *020      -0.0005    0.0006   -0.0004   -0.0004    0.0003    0.0002    0.0032   -0.0040    0.0016    0.0050
       14 C1     *011      -0.0000   -0.0000   -0.0000    0.0000   -0.0000   -0.0000    0.0000   -0.0000    0.0000    0.0000
       15 C1     *002      -0.0006    0.0006   -0.0005   -0.0006    0.0005    0.0004   -0.0048    0.0055   -0.0022   -0.0033
       16 C2     1s         0.4063    0.0682    0.5706    0.0688    0.5709    0.4067   -0.0923    0.0180   -0.1268    0.0922
       17 C2     2s         0.0110    0.0019    0.0158    0.0019    0.0160    0.0116    0.1752   -0.0347    0.2447   -0.1841
       18 C2     *s        -0.0022   -0.0006   -0.0049   -0.0012   -0.0097   -0.0152    0.1121   -0.0270    0.1906   -0.1557
       19 C2     2px       -0.0000    0.0001    0.0001   -0.0000    0.0002    0.0002    0.0513   -0.0600    0.0152    0.0913
       20 C2     *px        0.0003   -0.0006   -0.0001    0.0004   -0.0015   -0.0048    0.0058   -0.0078   -0.0052    0.0561
       21 C2     2py       -0.0000   -0.0001    0.0001    0.0001    0.0001    0.0001    0.0296    0.0964    0.0274   -0.0395
       22 C2     *py        0.0002    0.0010   -0.0002   -0.0011   -0.0007   -0.0027    0.0034    0.0149   -0.0002    0.0089
       23 C2     2pz        0.0000    0.0000    0.0000   -0.0000    0.0000    0.0000   -0.0000    0.0000    0.0000   -0.0000
       24 C2     *pz        0.0000    0.0000    0.0000   -0.0000    0.0000    0.0000    0.0000   -0.0000   -0.0000   -0.0000
       25 C2     *200      -0.0005   -0.0001   -0.0007   -0.0001   -0.0005   -0.0002    0.0036   -0.0057    0.0039   -0.0023
       26 C2     *110       0.0000   -0.0000   -0.0000    0.0001   -0.0002   -0.0001   -0.0014    0.0060   -0.0005   -0.0070
       27 C2     *101       0.0000    0.0000    0.0000    0.0000    0.0000   -0.0000   -0.0000    0.0000   -0.0000    0.0000
       28 C2     *020      -0.0005   -0.0001   -0.0007    0.0000   -0.0004   -0.0001    0.0044    0.0043    0.0061   -0.0038
       29 C2     *011      -0.0000   -0.0000   -0.0000    0.0000   -0.0000    0.0000    0.0000    0.0000   -0.0000   -0.0000
       30 C2     *002      -0.0006   -0.0001   -0.0008   -0.0001   -0.0008   -0.0004   -0.0048    0.0008   -0.0058    0.0038
       31 C3     1s         0.4063   -0.5283   -0.2263   -0.5288   -0.2258    0.4068   -0.0923    0.1009    0.0790   -0.0123
       32 C3     2s         0.0110   -0.0147   -0.0063   -0.0148   -0.0063    0.0116    0.1752   -0.1946   -0.1524    0.0246
       33 C3     *s        -0.0022    0.0046    0.0020    0.0089    0.0038   -0.0152    0.1121   -0.1516   -0.1187    0.0208
       34 C3     2px        0.0000    0.0000    0.0001    0.0002    0.0000   -0.0002   -0.0513    0.0538   -0.0306   -0.0949
       35 C3     *px       -0.0003    0.0001   -0.0006   -0.0016   -0.0000    0.0048   -0.0058    0.0020   -0.0092   -0.0198
       36 C3     2py       -0.0000   -0.0001    0.0001   -0.0001   -0.0001    0.0001    0.0296    0.0505   -0.0865   -0.1802
       37 C3     *py        0.0002    0.0005   -0.0009    0.0004    0.0013   -0.0027    0.0034    0.0109   -0.0101   -0.0484
       38 C3     2pz        0.0000    0.0000    0.0000    0.0000    0.0000    0.0000   -0.0000    0.0000   -0.0000   -0.0000
       39 C3     *pz        0.0000    0.0000   -0.0000    0.0000    0.0000    0.0000    0.0000    0.0000   -0.0000   -0.0000
       40 C3     *200      -0.0005    0.0007    0.0003    0.0004    0.0002   -0.0002    0.0036   -0.0068    0.0012    0.0059
       41 C3     *110      -0.0000   -0.0000   -0.0000   -0.0002    0.0000    0.0001    0.0014   -0.0047    0.0038    0.0055
       42 C3     *101       0.0000   -0.0000   -0.0000    0.0000    0.0000    0.0000   -0.0000    0.0000   -0.0000    0.0000
       43 C3     *020      -0.0005    0.0006    0.0003    0.0004    0.0001   -0.0001    0.0044   -0.0011   -0.0074   -0.0051
       44 C3     *011      -0.0000   -0.0000    0.0000   -0.0000   -0.0000    0.0000   -0.0000   -0.0000   -0.0000    0.0000
       45 C3     *002      -0.0006    0.0007    0.0003    0.0007    0.0003   -0.0004   -0.0048    0.0046    0.0036   -0.0005
       46 H4     1s        -0.0001   -0.0000   -0.0001   -0.0000   -0.0001   -0.0001    0.0351   -0.0107    0.0754   -0.1037
       47 H4     *s         0.0008    0.0001    0.0009    0.0001    0.0008   -0.0002    0.0037   -0.0021    0.0148   -0.0325
       48 H5     1s        -0.0001    0.0001    0.0001    0.0001    0.0000   -0.0001    0.0351   -0.0599   -0.0469    0.0139
       49 H5     *s         0.0008   -0.0008   -0.0004   -0.0008   -0.0003   -0.0002    0.0037   -0.0118   -0.0092    0.0043
       50 C6     1s         0.4063    0.5283    0.2263   -0.5288   -0.2258   -0.4067   -0.0923   -0.1009   -0.0790   -0.0123
       51 C6     2s         0.0110    0.0147    0.0063   -0.0148   -0.0063   -0.0116    0.1752    0.1946    0.1524    0.0246
       52 C6     *s        -0.0022   -0.0046   -0.0020    0.0089    0.0038    0.0152    0.1121    0.1516    0.1187    0.0208
       53 C6     2px       -0.0000    0.0000    0.0001   -0.0002   -0.0000   -0.0002    0.0513    0.0538   -0.0306    0.0949
       54 C6     *px        0.0003    0.0001   -0.0006    0.0016    0.0000    0.0048    0.0058    0.0020   -0.0092    0.0198
       55 C6     2py        0.0000   -0.0001    0.0001    0.0001    0.0001    0.0001   -0.0296    0.0505   -0.0865    0.1802
       56 C6     *py       -0.0002    0.0005   -0.0009   -0.0004   -0.0013   -0.0027   -0.0034    0.0109   -0.0101    0.0484
       57 C6     2pz       -0.0000   -0.0000   -0.0000   -0.0000    0.0000    0.0000    0.0000   -0.0000    0.0000   -0.0000
       58 C6     *pz       -0.0000   -0.0000    0.0000    0.0000   -0.0000   -0.0000   -0.0000   -0.0000    0.0000   -0.0000
       59 C6     *200      -0.0005   -0.0007   -0.0003    0.0004    0.0002    0.0002    0.0036    0.0068   -0.0012    0.0059
       60 C6     *110      -0.0000    0.0000    0.0000   -0.0002    0.0000   -0.0001    0.0014    0.0047   -0.0038    0.0055
       61 C6     *101      -0.0000    0.0000    0.0000    0.0000   -0.0000   -0.0000   -0.0000   -0.0000   -0.0000    0.0000
       62 C6     *020      -0.0005   -0.0006   -0.0003    0.0004    0.0001    0.0001    0.0044    0.0011    0.0074   -0.0051
       63 C6     *011      -0.0000    0.0000   -0.0000    0.0000   -0.0000    0.0000    0.0000    0.0000    0.0000    0.0000
       64 C6     *002      -0.0006   -0.0007   -0.0003    0.0007    0.0003    0.0004   -0.0048   -0.0046   -0.0036   -0.0005
       65 C7     1s         0.4063   -0.0682   -0.5706    0.0688    0.5709   -0.4068   -0.0923   -0.0180    0.1268    0.0922
       66 C7     2s         0.0110   -0.0019   -0.0158    0.0019    0.0160   -0.0116    0.1752    0.0347   -0.2447   -0.1841
       67 C7     *s        -0.0022    0.0006    0.0049   -0.0012   -0.0097    0.0152    0.1121    0.0270   -0.1906   -0.1557
       68 C7     2px        0.0000    0.0001    0.0001    0.0000   -0.0002    0.0002   -0.0513   -0.0600    0.0152   -0.0913
       69 C7     *px       -0.0003   -0.0006   -0.0001   -0.0004    0.0015   -0.0048   -0.0058   -0.0078   -0.0052   -0.0561
       70 C7     2py        0.0000   -0.0001    0.0001   -0.0001   -0.0001    0.0001   -0.0296    0.0964    0.0274    0.0395
       71 C7     *py       -0.0002    0.0010   -0.0002    0.0011    0.0007   -0.0027   -0.0034    0.0149   -0.0002   -0.0089
       72 C7     2pz        0.0000   -0.0000   -0.0000    0.0000   -0.0000    0.0000    0.0000    0.0000   -0.0000   -0.0000
       73 C7     *pz       -0.0000    0.0000    0.0000   -0.0000   -0.0000    0.0000    0.0000    0.0000    0.0000    0.0000
       74 C7     *200      -0.0005    0.0001    0.0007   -0.0001   -0.0005    0.0002    0.0036    0.0057   -0.0039   -0.0023
       75 C7     *110       0.0000    0.0000    0.0000    0.0001   -0.0002    0.0001   -0.0014   -0.0060    0.0005   -0.0070
       76 C7     *101      -0.0000    0.0000   -0.0000   -0.0000    0.0000   -0.0000    0.0000   -0.0000    0.0000    0.0000
       77 C7     *020      -0.0005    0.0001    0.0007    0.0000   -0.0004    0.0001    0.0044   -0.0043   -0.0061   -0.0038
       78 C7     *011       0.0000    0.0000   -0.0000    0.0000    0.0000    0.0000   -0.0000   -0.0000    0.0000   -0.0000
       79 C7     *002      -0.0006    0.0001    0.0008   -0.0001   -0.0008    0.0004   -0.0048   -0.0008    0.0058    0.0038
       80 H8     1s        -0.0001   -0.0001   -0.0001    0.0001    0.0000    0.0001    0.0351    0.0599    0.0469    0.0139
       81 H8     *s         0.0008    0.0008    0.0004   -0.0008   -0.0003    0.0002    0.0037    0.0118    0.0092    0.0043
       82 H9     1s        -0.0001    0.0000    0.0001   -0.0000   -0.0001    0.0001    0.0351    0.0107   -0.0754   -0.1037
       83 H9     *s         0.0008   -0.0001   -0.0009    0.0001    0.0008    0.0002    0.0037    0.0021   -0.0148   -0.0325
       84 C10    1s         0.4063    0.4601   -0.3444    0.4600   -0.3450    0.4068   -0.0923   -0.1188    0.0479   -0.0799
       85 C10    2s         0.0110    0.0128   -0.0096    0.0129   -0.0096    0.0116    0.1752    0.2292   -0.0923    0.1595
       86 C10    *s        -0.0022   -0.0040    0.0030   -0.0078    0.0058   -0.0152    0.1121    0.1786   -0.0719    0.1348
       87 C10    2px        0.0000    0.0001    0.0001   -0.0001   -0.0001    0.0000   -0.0000   -0.0428   -0.1063   -0.1236
       88 C10    *px       -0.0000   -0.0007   -0.0010    0.0007    0.0010   -0.0000   -0.0000   -0.0063   -0.0157   -0.0315
       89 C10    2py        0.0000   -0.0001    0.0001   -0.0002    0.0001   -0.0002   -0.0593   -0.0252    0.0101    0.0514
       90 C10    *py       -0.0003    0.0002   -0.0001    0.0013   -0.0010    0.0055   -0.0067    0.0043   -0.0017    0.0460
       91 C10    2pz        0.0000    0.0000   -0.0000   -0.0000    0.0000    0.0000   -0.0000   -0.0000    0.0000   -0.0000
       92 C10    *pz        0.0000   -0.0000   -0.0000   -0.0000   -0.0000   -0.0000   -0.0000   -0.0000   -0.0000   -0.0000
       93 C10    *200      -0.0005   -0.0005    0.0004   -0.0003    0.0002   -0.0001    0.0048    0.0054   -0.0022    0.0004
       94 C10    *110      -0.0000   -0.0000   -0.0000    0.0001    0.0001   -0.0000    0.0000    0.0044    0.0110    0.0074
       95 C10    *101       0.0000    0.0000    0.0000    0.0000    0.0000   -0.0000   -0.0000   -0.0000   -0.0000   -0.0000
       96 C10    *020      -0.0005   -0.0006    0.0004   -0.0004    0.0003   -0.0002    0.0032    0.0040   -0.0016    0.0050
       97 C10    *011      -0.0000   -0.0000    0.0000   -0.0000    0.0000   -0.0000   -0.0000    0.0000    0.0000    0.0000
       98 C10    *002      -0.0006   -0.0006    0.0005   -0.0006    0.0005   -0.0004   -0.0048   -0.0055    0.0022   -0.0033
       99 H11    1s        -0.0001   -0.0001    0.0001   -0.0001    0.0000   -0.0001    0.0351    0.0706   -0.0284    0.0898
      100 H11    *s         0.0008    0.0007   -0.0005    0.0007   -0.0005   -0.0002    0.0037    0.0139   -0.0056    0.0281
      101 H12    1s        -0.0001    0.0001   -0.0001   -0.0001    0.0000    0.0001    0.0351   -0.0706    0.0284    0.0898
      102 H12    *s         0.0008   -0.0007    0.0005    0.0007   -0.0005    0.0002    0.0037   -0.0139    0.0056    0.0281

          Orbital           11        12        13        14        15        16        17        18        19        20    
          Energy           -0.8167   -0.7015   -0.6383   -0.6103   -0.5812   -0.5812   -0.4940   -0.4884   -0.4884   -0.3291
          Occ. No.          2.0000    2.0000    2.0000    2.0000    2.0000    2.0000    2.0000    2.0000    2.0000    2.0000

        1 C1     1s         0.0604   -0.0076   -0.0561   -0.0000   -0.0201    0.0035   -0.0000    0.0046    0.0009    0.0000
        2 C1     2s        -0.1205    0.0132    0.1156    0.0000    0.0448   -0.0077   -0.0000   -0.0151   -0.0028   -0.0000
        3 C1     *s        -0.1019    0.0335    0.0580    0.0000    0.0292   -0.0050    0.0000    0.0049    0.0009   -0.0000
        4 C1     2px        0.1636    0.0000   -0.0000    0.2720    0.0146    0.0846    0.0000   -0.0464    0.2518   -0.0000
        5 C1     *px        0.0417    0.0000   -0.0000    0.0962    0.0051    0.0294   -0.0000   -0.0203    0.1103    0.0000
        6 C1     2py        0.0389   -0.1938   -0.1313   -0.0000    0.2891   -0.0498   -0.0000   -0.2188   -0.0403    0.0000
        7 C1     *py        0.0347   -0.0715   -0.1303    0.0000    0.1280   -0.0220    0.0000   -0.1280   -0.0236   -0.0000
        8 C1     2pz        0.0000   -0.0000   -0.0000    0.0000    0.0000   -0.0000    0.2098    0.0000   -0.0000   -0.2857
        9 C1     *pz        0.0000    0.0000   -0.0000   -0.0000    0.0000   -0.0000    0.1371    0.0000   -0.0000   -0.2433
       10 C1     *200      -0.0003   -0.0001   -0.0073   -0.0000    0.0050   -0.0009    0.0000   -0.0105   -0.0019    0.0000
       11 C1     *110       0.0098    0.0000   -0.0000    0.0098    0.0025    0.0144   -0.0000   -0.0028    0.0154    0.0000
       12 C1     *101       0.0000    0.0000    0.0000   -0.0000    0.0000    0.0000   -0.0000   -0.0000   -0.0000   -0.0090
       13 C1     *020      -0.0038    0.0031    0.0109    0.0000   -0.0093    0.0016   -0.0000    0.0152    0.0028    0.0000
       14 C1     *011      -0.0000    0.0000    0.0000   -0.0000   -0.0000   -0.0000    0.0119   -0.0000    0.0000   -0.0085
       15 C1     *002       0.0025   -0.0003   -0.0020   -0.0000   -0.0000    0.0000    0.0000   -0.0005   -0.0001   -0.0000
       16 C2     1s         0.0390   -0.0076    0.0561    0.0000   -0.0070    0.0191    0.0000   -0.0030    0.0036    0.0000
       17 C2     2s        -0.0779    0.0132   -0.1156   -0.0000    0.0157   -0.0427   -0.0000    0.0100   -0.0117    0.0000
       18 C2     *s        -0.0658    0.0335   -0.0580   -0.0000    0.0102   -0.0278   -0.0000   -0.0032    0.0038    0.0000
       19 C2     2px       -0.0727   -0.1678    0.1137   -0.1360    0.1281   -0.2235   -0.0000    0.0275   -0.2297    0.0000
       20 C2     *px       -0.0046   -0.0619    0.1129   -0.0481    0.0529   -0.1003   -0.0000    0.0304   -0.1222    0.0000
       21 C2     2py        0.1761   -0.0969    0.0657    0.2355   -0.0190   -0.1633   -0.0000    0.2409    0.0591   -0.0000
       22 C2     *py        0.0529   -0.0357    0.0652    0.0833   -0.0018   -0.0699   -0.0000    0.1162    0.0135   -0.0000
       23 C2     2pz       -0.0000   -0.0000   -0.0000    0.0000    0.0000   -0.0000    0.2098    0.0000   -0.0000   -0.0298
       24 C2     *pz       -0.0000   -0.0000   -0.0000   -0.0000    0.0000   -0.0000    0.1371    0.0000   -0.0000   -0.0254
       25 C2     *200      -0.0068    0.0023   -0.0063   -0.0042    0.0039    0.0077    0.0000   -0.0109    0.0024   -0.0000
       26 C2     *110       0.0037    0.0028   -0.0157    0.0049   -0.0112    0.0093    0.0000   -0.0087    0.0223    0.0000
       27 C2     *101       0.0000    0.0000   -0.0000    0.0000    0.0000    0.0000    0.0103    0.0000   -0.0000   -0.0116
       28 C2     *020       0.0042    0.0007    0.0028    0.0042   -0.0054   -0.0035   -0.0000    0.0078    0.0012   -0.0000
       29 C2     *011      -0.0000   -0.0000    0.0000   -0.0000   -0.0000   -0.0000    0.0060    0.0000   -0.0000    0.0183
       30 C2     *002       0.0016   -0.0003    0.0020    0.0000   -0.0000    0.0000    0.0000    0.0003   -0.0004   -0.0000
       31 C3     1s        -0.0994   -0.0076    0.0561    0.0000   -0.0130   -0.0157   -0.0000   -0.0016   -0.0044    0.0000
       32 C3     2s         0.1984    0.0132   -0.1156   -0.0000    0.0291    0.0350    0.0000    0.0052    0.0145    0.0000
       33 C3     *s         0.1677    0.0335   -0.0580   -0.0000    0.0190    0.0228    0.0000   -0.0017   -0.0046   -0.0000
       34 C3     2px        0.0680    0.1678   -0.1137   -0.1360   -0.1955   -0.1678   -0.0000    0.0561   -0.2244   -0.0000
       35 C3     *px        0.0527    0.0619   -0.1129   -0.0481   -0.0834   -0.0769   -0.0000    0.0151   -0.1250    0.0000
       36 C3     2py       -0.0101   -0.0969    0.0657   -0.2355    0.0367    0.1603   -0.0000    0.2462    0.0306   -0.0000
       37 C3     *py       -0.0230   -0.0357    0.0652   -0.0833    0.0217    0.0664   -0.0000    0.1134    0.0288    0.0000
       38 C3     2pz       -0.0000   -0.0000   -0.0000   -0.0000    0.0000   -0.0000    0.2098    0.0000   -0.0000   -0.2559
       39 C3     *pz       -0.0000    0.0000    0.0000   -0.0000    0.0000   -0.0000    0.1371    0.0000   -0.0000   -0.2179
       40 C3     *200       0.0041    0.0023   -0.0063    0.0042    0.0011   -0.0085    0.0000   -0.0094   -0.0061   -0.0000
       41 C3     *110      -0.0057   -0.0028    0.0157    0.0049    0.0137    0.0050    0.0000    0.0002    0.0240    0.0000
       42 C3     *101       0.0000    0.0000    0.0000    0.0000   -0.0000   -0.0000   -0.0103   -0.0000    0.0000    0.0129
       43 C3     *020       0.0025    0.0007    0.0028   -0.0042   -0.0040    0.0051    0.0000    0.0078    0.0016   -0.0000
       44 C3     *011      -0.0000   -0.0000   -0.0000   -0.0000   -0.0000   -0.0000    0.0060    0.0000    0.0000    0.0071
       45 C3     *002      -0.0041   -0.0003    0.0020    0.0000   -0.0000   -0.0000    0.0000    0.0002    0.0005   -0.0000
       46 H4     1s        -0.0439    0.1110   -0.1360   -0.0000   -0.0569    0.1544    0.0000   -0.1055    0.1238    0.0000
       47 H4     *s        -0.0137    0.0664   -0.0663   -0.0000   -0.0440    0.1195    0.0000   -0.0931    0.1093   -0.0000
       48 H5     1s         0.1117    0.1110   -0.1360   -0.0000   -0.1053   -0.1265   -0.0000   -0.0545   -0.1533    0.0000
       49 H5     *s         0.0350    0.0664   -0.0663   -0.0000   -0.0815   -0.0979    0.0000   -0.0481   -0.1353    0.0000
       50 C6     1s        -0.0994   -0.0076   -0.0561    0.0000    0.0130    0.0157   -0.0000   -0.0016   -0.0044   -0.0000
       51 C6     2s         0.1984    0.0132    0.1156   -0.0000   -0.0291   -0.0350    0.0000    0.0052    0.0145    0.0000
       52 C6     *s         0.1677    0.0335    0.0580    0.0000   -0.0190   -0.0228    0.0000   -0.0017   -0.0046    0.0000
       53 C6     2px       -0.0680   -0.1678   -0.1137   -0.1360   -0.1955   -0.1678    0.0000   -0.0561    0.2244   -0.0000
       54 C6     *px       -0.0527   -0.0619   -0.1129   -0.0481   -0.0834   -0.0769    0.0000   -0.0151    0.1250   -0.0000
       55 C6     2py        0.0101    0.0969    0.0657   -0.2355    0.0367    0.1603    0.0000   -0.2462   -0.0306   -0.0000
       56 C6     *py        0.0230    0.0357    0.0652   -0.0833    0.0217    0.0664    0.0000   -0.1134   -0.0288   -0.0000
       57 C6     2pz        0.0000    0.0000   -0.0000    0.0000    0.0000   -0.0000    0.2098    0.0000   -0.0000    0.2559
       58 C6     *pz       -0.0000    0.0000   -0.0000   -0.0000    0.0000   -0.0000    0.1371    0.0000   -0.0000    0.2179
       59 C6     *200       0.0041    0.0023    0.0063   -0.0042   -0.0011    0.0085   -0.0000   -0.0094   -0.0061    0.0000
       60 C6     *110      -0.0057   -0.0028   -0.0157   -0.0049   -0.0137   -0.0050    0.0000    0.0002    0.0240   -0.0000
       61 C6     *101      -0.0000    0.0000   -0.0000    0.0000    0.0000   -0.0000    0.0103    0.0000    0.0000    0.0129
       62 C6     *020       0.0025    0.0007   -0.0028    0.0042    0.0040   -0.0051   -0.0000    0.0078    0.0016    0.0000
       63 C6     *011      -0.0000    0.0000   -0.0000   -0.0000   -0.0000   -0.0000   -0.0060    0.0000    0.0000    0.0071
       64 C6     *002      -0.0041   -0.0003   -0.0020   -0.0000    0.0000    0.0000   -0.0000    0.0002    0.0005   -0.0000
       65 C7     1s         0.0390   -0.0076   -0.0561    0.0000    0.0070   -0.0191    0.0000   -0.0030    0.0036   -0.0000
       66 C7     2s        -0.0779    0.0132    0.1156   -0.0000   -0.0157    0.0427    0.0000    0.0100   -0.0117    0.0000
       67 C7     *s        -0.0658    0.0335    0.0580    0.0000   -0.0102    0.0278   -0.0000   -0.0032    0.0038    0.0000
       68 C7     2px        0.0727    0.1678    0.1137   -0.1360    0.1281   -0.2235    0.0000   -0.0275    0.2297   -0.0000
       69 C7     *px        0.0046    0.0619    0.1129   -0.0481    0.0529   -0.1003    0.0000   -0.0304    0.1222   -0.0000
       70 C7     2py       -0.1761    0.0969    0.0657    0.2355   -0.0190   -0.1633    0.0000   -0.2409   -0.0591    0.0000
       71 C7     *py       -0.0529    0.0357    0.0652    0.0833   -0.0018   -0.0699    0.0000   -0.1162   -0.0135   -0.0000
       72 C7     2pz       -0.0000   -0.0000    0.0000    0.0000    0.0000   -0.0000    0.2098    0.0000   -0.0000    0.0298
       73 C7     *pz       -0.0000    0.0000   -0.0000    0.0000   -0.0000   -0.0000    0.1371    0.0000   -0.0000    0.0254
       74 C7     *200      -0.0068    0.0023    0.0063    0.0042   -0.0039   -0.0077    0.0000   -0.0109    0.0024    0.0000
       75 C7     *110       0.0037    0.0028    0.0157   -0.0049    0.0112   -0.0093    0.0000   -0.0087    0.0223    0.0000
       76 C7     *101      -0.0000   -0.0000   -0.0000    0.0000    0.0000    0.0000   -0.0103    0.0000   -0.0000   -0.0116
       77 C7     *020       0.0042    0.0007   -0.0028   -0.0042    0.0054    0.0035   -0.0000    0.0078    0.0012    0.0000
       78 C7     *011      -0.0000   -0.0000    0.0000   -0.0000   -0.0000   -0.0000   -0.0060    0.0000    0.0000    0.0183
       79 C7     *002       0.0016   -0.0003   -0.0020   -0.0000    0.0000   -0.0000    0.0000    0.0003   -0.0004    0.0000
       80 H8     1s         0.1117    0.1110    0.1360   -0.0000    0.1053    0.1265    0.0000   -0.0545   -0.1533    0.0000
       81 H8     *s         0.0350    0.0664    0.0663   -0.0000    0.0815    0.0979    0.0000   -0.0481   -0.1353    0.0000
       82 H9     1s        -0.0439    0.1110    0.1360   -0.0000    0.0569   -0.1544    0.0000   -0.1055    0.1238    0.0000
       83 H9     *s        -0.0137    0.0664    0.0663    0.0000    0.0440   -0.1195    0.0000   -0.0931    0.1093   -0.0000
       84 C10    1s         0.0604   -0.0076    0.0561   -0.0000    0.0201   -0.0035   -0.0000    0.0046    0.0009    0.0000
       85 C10    2s        -0.1205    0.0132   -0.1156    0.0000   -0.0448    0.0077   -0.0000   -0.0151   -0.0028    0.0000
       86 C10    *s        -0.1019    0.0335   -0.0580   -0.0000   -0.0292    0.0050    0.0000    0.0049    0.0009   -0.0000
       87 C10    2px       -0.1636    0.0000    0.0000    0.2720    0.0146    0.0846   -0.0000    0.0464   -0.2518   -0.0000
       88 C10    *px       -0.0417    0.0000    0.0000    0.0962    0.0051    0.0294   -0.0000    0.0203   -0.1103   -0.0000
       89 C10    2py       -0.0389    0.1938   -0.1313    0.0000    0.2891   -0.0498   -0.0000    0.2188    0.0403   -0.0000
       90 C10    *py       -0.0347    0.0715   -0.1303    0.0000    0.1280   -0.0220   -0.0000    0.1280    0.0236    0.0000
       91 C10    2pz       -0.0000   -0.0000   -0.0000    0.0000    0.0000   -0.0000    0.2098    0.0000   -0.0000    0.2857
       92 C10    *pz        0.0000   -0.0000   -0.0000    0.0000   -0.0000   -0.0000    0.1371    0.0000   -0.0000    0.2433
       93 C10    *200      -0.0003   -0.0001    0.0073   -0.0000   -0.0050    0.0009    0.0000   -0.0105   -0.0019   -0.0000
       94 C10    *110       0.0098   -0.0000   -0.0000   -0.0098   -0.0025   -0.0144    0.0000   -0.0028    0.0154   -0.0000
       95 C10    *101       0.0000    0.0000    0.0000    0.0000    0.0000    0.0000   -0.0000    0.0000   -0.0000   -0.0090
       96 C10    *020      -0.0038    0.0031   -0.0109    0.0000    0.0093   -0.0016   -0.0000    0.0152    0.0028   -0.0000
       97 C10    *011      -0.0000    0.0000    0.0000   -0.0000   -0.0000    0.0000   -0.0119   -0.0000   -0.0000   -0.0085
       98 C10    *002       0.0025   -0.0003    0.0020    0.0000    0.0000   -0.0000    0.0000   -0.0005   -0.0001   -0.0000
       99 H11    1s        -0.0679    0.1110   -0.1360    0.0000    0.1622   -0.0279   -0.0000    0.1600    0.0295   -0.0000
      100 H11    *s        -0.0213    0.0664   -0.0663    0.0000    0.1255   -0.0216   -0.0000    0.1412    0.0260   -0.0000
      101 H12    1s        -0.0679    0.1110    0.1360    0.0000   -0.1622    0.0279    0.0000    0.1600    0.0295   -0.0000
      102 H12    *s        -0.0213    0.0664    0.0663    0.0000   -0.1255    0.0216    0.0000    0.1412    0.0260   -0.0000

          Orbital           21        22        23        24        25        26        27        28        29        30    
          Energy           -0.3291    0.1472    0.1472    0.2336    0.2928    0.2928    0.3309    0.3309    0.3349    0.3663
          Occ. No.          2.0000    0.0000    0.0000    0.0000    0.0000    0.0000    0.0000    0.0000    0.0000    0.0000

        1 C1     1s         0.0000   -0.0000    0.0000    0.0378    0.0377    0.0067    0.0389   -0.0688    0.0442    0.0000
        2 C1     2s        -0.0000    0.0000   -0.0000   -0.0473   -0.0139   -0.0025   -0.0443    0.0784   -0.1450    0.0000
        3 C1     *s        -0.0000   -0.0000   -0.0000   -0.5531   -1.1014   -0.1951   -0.7516    1.3285    0.6338   -0.0000
        4 C1     2px       -0.0000   -0.0000   -0.0000    0.0000   -0.0029    0.0166   -0.0483   -0.0273   -0.0000    0.0000
        5 C1     *px        0.0000   -0.0000   -0.0000   -0.0000    0.0525   -0.2961   -0.3645   -0.2062   -0.0000    0.0000
        6 C1     2py       -0.0000   -0.0000    0.0000    0.1084    0.2011    0.0356    0.0500   -0.0884    0.0591    0.0000
        7 C1     *py        0.0000    0.0000   -0.0000    0.3085    0.6720    0.1191    0.3721   -0.6577    1.6335    0.0000
        8 C1     2pz        0.1305    0.2200   -0.2189   -0.0000    0.0000    0.0000    0.0000   -0.0000   -0.0000   -0.2372
        9 C1     *pz        0.1111    0.4025   -0.4005   -0.0000   -0.0000   -0.0000    0.0000   -0.0000   -0.0000   -0.6750
       10 C1     *200       0.0000    0.0000    0.0000   -0.0069   -0.0038   -0.0007    0.0026   -0.0045    0.0107   -0.0000
       11 C1     *110      -0.0000   -0.0000   -0.0000   -0.0000    0.0021   -0.0116    0.0094    0.0053    0.0000    0.0000
       12 C1     *101      -0.0197   -0.0232   -0.0233    0.0000    0.0000   -0.0000    0.0000    0.0000    0.0000    0.0000
       13 C1     *020      -0.0000   -0.0000   -0.0000    0.0103    0.0032    0.0006   -0.0023    0.0040    0.0027   -0.0000
       14 C1     *011       0.0039   -0.0069    0.0068    0.0000    0.0000   -0.0000   -0.0000    0.0000    0.0000    0.0163
       15 C1     *002      -0.0000   -0.0000    0.0000    0.0002    0.0026    0.0005    0.0008   -0.0014   -0.0061   -0.0000
       16 C2     1s         0.0000   -0.0000   -0.0000    0.0378    0.0131    0.0360    0.0401    0.0681   -0.0442   -0.0000
       17 C2     2s         0.0000    0.0000   -0.0000   -0.0473   -0.0048   -0.0133   -0.0457   -0.0776    0.1450   -0.0000
       18 C2     *s        -0.0000   -0.0000    0.0000   -0.5531   -0.3817   -1.0514   -0.7747   -1.3152   -0.6338    0.0000
       19 C2     2px        0.0000   -0.0000    0.0000    0.0939    0.0524    0.1691    0.0686    0.0617   -0.0512    0.0000
       20 C2     *px        0.0000   -0.0000    0.0000    0.2672    0.3430    0.5043    0.5126    0.4575   -1.4147   -0.0000
       21 C2     2py        0.0000    0.0000   -0.0000    0.0542    0.0485    0.0910   -0.0156    0.0681   -0.0295   -0.0000
       22 C2     *py       -0.0000   -0.0000    0.0000    0.1542   -0.1283    0.4096   -0.1207    0.5096   -0.8168   -0.0000
       23 C2     2pz        0.3127    0.0796    0.3000    0.0000   -0.0000   -0.0000   -0.0000    0.0000    0.0000    0.2372
       24 C2     *pz        0.2663    0.1456    0.5488    0.0000    0.0000   -0.0000   -0.0000    0.0000    0.0000    0.6750
       25 C2     *200      -0.0000    0.0000    0.0000    0.0060    0.0053   -0.0003   -0.0051    0.0005   -0.0047    0.0000
       26 C2     *110      -0.0000    0.0000    0.0000    0.0149   -0.0034    0.0078    0.0004   -0.0100    0.0069   -0.0000
       27 C2     *101       0.0071    0.0138   -0.0123    0.0000    0.0000   -0.0000    0.0000   -0.0000   -0.0000   -0.0141
       28 C2     *020      -0.0000   -0.0000   -0.0000   -0.0026   -0.0055   -0.0002    0.0054   -0.0000   -0.0087    0.0000
       29 C2     *011       0.0065   -0.0288    0.0026    0.0000    0.0000    0.0000    0.0000    0.0000   -0.0000   -0.0081
       30 C2     *002      -0.0000   -0.0000   -0.0000    0.0002    0.0009    0.0025    0.0008    0.0014    0.0061    0.0000
       31 C3     1s         0.0000   -0.0000   -0.0000    0.0378    0.0246   -0.0293   -0.0790    0.0007   -0.0442   -0.0000
       32 C3     2s        -0.0000   -0.0000   -0.0000   -0.0473   -0.0091    0.0108    0.0901   -0.0008    0.1450    0.0000
       33 C3     *s         0.0000    0.0000    0.0000   -0.5531   -0.7197    0.8562    1.5263   -0.0134   -0.6338    0.0000
       34 C3     2px        0.0000    0.0000    0.0000   -0.0939   -0.1074    0.1408    0.0882    0.0270    0.0512   -0.0000
       35 C3     *px       -0.0000    0.0000   -0.0000   -0.2672   -0.4954    0.3557    0.6562    0.2037    1.4147   -0.0000
       36 C3     2py        0.0000    0.0000   -0.0000    0.0542    0.0768   -0.0688   -0.0504    0.0485   -0.0295   -0.0000
       37 C3     *py       -0.0000   -0.0000    0.0000    0.1542    0.0202   -0.4288   -0.3746    0.3660   -0.8168   -0.0000
       38 C3     2pz       -0.1822   -0.2996   -0.0811    0.0000    0.0000    0.0000   -0.0000    0.0000   -0.0000    0.2372
       39 C3     *pz       -0.1552   -0.5481   -0.1483   -0.0000   -0.0000   -0.0000   -0.0000    0.0000    0.0000    0.6750
       40 C3     *200       0.0000   -0.0000    0.0000    0.0060    0.0049    0.0021    0.0022    0.0047   -0.0047   -0.0000
       41 C3     *110      -0.0000    0.0000   -0.0000   -0.0149    0.0006    0.0085   -0.0084    0.0055   -0.0069   -0.0000
       42 C3     *101      -0.0041   -0.0124    0.0137    0.0000   -0.0000    0.0000   -0.0000    0.0000    0.0000    0.0141
       43 C3     *020      -0.0000   -0.0000   -0.0000   -0.0026   -0.0052   -0.0017   -0.0028   -0.0047   -0.0087   -0.0000
       44 C3     *011      -0.0180   -0.0028    0.0288   -0.0000   -0.0000   -0.0000   -0.0000   -0.0000    0.0000   -0.0081
       45 C3     *002       0.0000    0.0000    0.0000    0.0002    0.0017   -0.0021   -0.0016    0.0000    0.0061   -0.0000
       46 H4     1s         0.0000   -0.0000   -0.0000    0.0350    0.0027    0.0074   -0.0071   -0.0121   -0.0235    0.0000
       47 H4     *s        -0.0000   -0.0000    0.0000    0.7771    0.4549    1.2530    0.7210    1.2239   -1.3890   -0.0000
       48 H5     1s        -0.0000   -0.0000   -0.0000    0.0350    0.0050   -0.0060    0.0140   -0.0001   -0.0235   -0.0000
       49 H5     *s         0.0000   -0.0000    0.0000    0.7771    0.8577   -1.0204   -1.4205    0.0125   -1.3890   -0.0000
       50 C6     1s         0.0000   -0.0000   -0.0000    0.0378   -0.0246    0.0293   -0.0790    0.0007    0.0442   -0.0000
       51 C6     2s        -0.0000    0.0000    0.0000   -0.0473    0.0091   -0.0108    0.0901   -0.0008   -0.1450   -0.0000
       52 C6     *s         0.0000    0.0000   -0.0000   -0.5531    0.7197   -0.8562    1.5263   -0.0134    0.6338    0.0000
       53 C6     2px        0.0000   -0.0000   -0.0000    0.0939   -0.1074    0.1408   -0.0882   -0.0270    0.0512    0.0000
       54 C6     *px       -0.0000    0.0000   -0.0000    0.2672   -0.4954    0.3557   -0.6562   -0.2037    1.4147   -0.0000
       55 C6     2py       -0.0000    0.0000    0.0000   -0.0542    0.0768   -0.0688    0.0504   -0.0485   -0.0295    0.0000
       56 C6     *py       -0.0000   -0.0000    0.0000   -0.1542    0.0202   -0.4288    0.3746   -0.3660   -0.8168    0.0000
       57 C6     2pz        0.1822   -0.2996   -0.0811   -0.0000    0.0000    0.0000    0.0000   -0.0000   -0.0000   -0.2372
       58 C6     *pz        0.1552   -0.5481   -0.1483   -0.0000   -0.0000    0.0000    0.0000   -0.0000   -0.0000   -0.6750
       59 C6     *200      -0.0000    0.0000    0.0000    0.0060   -0.0049   -0.0021    0.0022    0.0047    0.0047    0.0000
       60 C6     *110       0.0000   -0.0000    0.0000   -0.0149   -0.0006   -0.0085   -0.0084    0.0055    0.0069   -0.0000
       61 C6     *101      -0.0041    0.0124   -0.0137   -0.0000    0.0000    0.0000   -0.0000    0.0000    0.0000    0.0141
       62 C6     *020       0.0000   -0.0000    0.0000   -0.0026    0.0052    0.0017   -0.0028   -0.0047    0.0087    0.0000
       63 C6     *011      -0.0180    0.0028   -0.0288    0.0000    0.0000    0.0000   -0.0000   -0.0000   -0.0000   -0.0081
       64 C6     *002       0.0000   -0.0000    0.0000    0.0002   -0.0017    0.0021   -0.0016    0.0000   -0.0061   -0.0000
       65 C7     1s        -0.0000   -0.0000    0.0000    0.0378   -0.0131   -0.0360    0.0401    0.0681    0.0442   -0.0000
       66 C7     2s         0.0000    0.0000    0.0000   -0.0473    0.0048    0.0133   -0.0457   -0.0776   -0.1450   -0.0000
       67 C7     *s         0.0000    0.0000   -0.0000   -0.5531    0.3817    1.0514   -0.7748   -1.3152    0.6338    0.0000
       68 C7     2px       -0.0000   -0.0000    0.0000   -0.0939    0.0524    0.1691   -0.0686   -0.0617   -0.0512    0.0000
       69 C7     *px        0.0000   -0.0000    0.0000   -0.2672    0.3430    0.5043   -0.5126   -0.4575   -1.4147    0.0000
       70 C7     2py       -0.0000   -0.0000   -0.0000   -0.0542    0.0485    0.0910    0.0156   -0.0681   -0.0295    0.0000
       71 C7     *py        0.0000   -0.0000    0.0000   -0.1542   -0.1283    0.4096    0.1207   -0.5096   -0.8168    0.0000
       72 C7     2pz       -0.3127    0.0796    0.3000    0.0000    0.0000   -0.0000    0.0000   -0.0000    0.0000   -0.2372
       73 C7     *pz       -0.2663    0.1456    0.5488    0.0000    0.0000   -0.0000    0.0000   -0.0000   -0.0000   -0.6750
       74 C7     *200      -0.0000   -0.0000   -0.0000    0.0060   -0.0053    0.0003   -0.0051    0.0005    0.0047    0.0000
       75 C7     *110      -0.0000   -0.0000    0.0000    0.0149    0.0034   -0.0078    0.0004   -0.0100   -0.0069    0.0000
       76 C7     *101       0.0071   -0.0138    0.0123    0.0000   -0.0000   -0.0000    0.0000    0.0000    0.0000   -0.0141
       77 C7     *020      -0.0000   -0.0000    0.0000   -0.0026    0.0055    0.0002    0.0054   -0.0000    0.0087    0.0000
       78 C7     *011       0.0065    0.0288   -0.0026    0.0000    0.0000   -0.0000    0.0000   -0.0000   -0.0000   -0.0081
       79 C7     *002      -0.0000   -0.0000    0.0000    0.0002   -0.0009   -0.0025    0.0008    0.0014   -0.0061    0.0000
       80 H8     1s        -0.0000    0.0000    0.0000    0.0350   -0.0050    0.0060    0.0140   -0.0001    0.0235    0.0000
       81 H8     *s        -0.0000    0.0000   -0.0000    0.7771   -0.8577    1.0204   -1.4205    0.0124    1.3890   -0.0000
       82 H9     1s         0.0000   -0.0000   -0.0000    0.0350   -0.0027   -0.0074   -0.0071   -0.0121    0.0235   -0.0000
       83 H9     *s        -0.0000   -0.0000   -0.0000    0.7771   -0.4549   -1.2530    0.7210    1.2239    1.3890   -0.0000
       84 C10    1s        -0.0000   -0.0000    0.0000    0.0378   -0.0377   -0.0067    0.0389   -0.0688   -0.0442    0.0000
       85 C10    2s         0.0000   -0.0000   -0.0000   -0.0473    0.0139    0.0025   -0.0443    0.0784    0.1450    0.0000
       86 C10    *s         0.0000   -0.0000   -0.0000   -0.5531    1.1014    0.1951   -0.7516    1.3285   -0.6338   -0.0000
       87 C10    2px        0.0000    0.0000   -0.0000    0.0000   -0.0029    0.0166    0.0483    0.0273    0.0000    0.0000
       88 C10    *px       -0.0000    0.0000    0.0000   -0.0000    0.0525   -0.2961    0.3645    0.2062    0.0000    0.0000
       89 C10    2py       -0.0000    0.0000    0.0000   -0.1084    0.2011    0.0356   -0.0500    0.0884    0.0591    0.0000
       90 C10    *py       -0.0000    0.0000   -0.0000   -0.3085    0.6720    0.1191   -0.3721    0.6577    1.6335   -0.0000
       91 C10    2pz       -0.1305    0.2200   -0.2189    0.0000   -0.0000   -0.0000   -0.0000    0.0000   -0.0000    0.2372
       92 C10    *pz       -0.1111    0.4025   -0.4005    0.0000   -0.0000   -0.0000   -0.0000    0.0000    0.0000    0.6750
       93 C10    *200      -0.0000   -0.0000    0.0000   -0.0069    0.0038    0.0007    0.0026   -0.0045   -0.0107   -0.0000
       94 C10    *110      -0.0000   -0.0000    0.0000    0.0000   -0.0021    0.0116    0.0094    0.0053    0.0000   -0.0000
       95 C10    *101      -0.0197    0.0232    0.0233   -0.0000    0.0000    0.0000    0.0000   -0.0000   -0.0000   -0.0000
       96 C10    *020      -0.0000    0.0000    0.0000    0.0103   -0.0032   -0.0006   -0.0023    0.0040   -0.0027   -0.0000
       97 C10    *011       0.0039    0.0069   -0.0068   -0.0000   -0.0000   -0.0000   -0.0000    0.0000    0.0000    0.0163
       98 C10    *002      -0.0000   -0.0000    0.0000    0.0002   -0.0026   -0.0005    0.0008   -0.0014    0.0061   -0.0000
       99 H11    1s        -0.0000    0.0000    0.0000    0.0350   -0.0077   -0.0014   -0.0069    0.0122   -0.0235   -0.0000
      100 H11    *s        -0.0000   -0.0000    0.0000    0.7771   -1.3126   -0.2325    0.6995   -1.2364   -1.3890    0.0000
      101 H12    1s         0.0000    0.0000   -0.0000    0.0350    0.0077    0.0014   -0.0069    0.0122    0.0235   -0.0000
      102 H12    *s         0.0000    0.0000   -0.0000    0.7771    1.3126    0.2325    0.6995   -1.2364    1.3890    0.0000

          Orbital           31        32        33        34    
          Energy            0.4715    0.4715    0.4967    0.4967
          Occ. No.          0.0000    0.0000    0.0000    0.0000

        1 C1     1s        -0.0280    0.0668   -0.0400    0.0258
        2 C1     2s         0.0201   -0.0480    0.0169   -0.0109
        3 C1     *s         0.8400   -2.0062    1.7585   -1.1350
        4 C1     2px        0.0120    0.0050    0.1228    0.1903
        5 C1     *px       -0.8768   -0.3671    1.1754    1.8211
        6 C1     2py        0.0749   -0.1788    0.0414   -0.0267
        7 C1     *py        0.6544   -1.5629    0.2126   -0.1372
        8 C1     2pz       -0.0000   -0.0000    0.0000    0.0000
        9 C1     *pz       -0.0000    0.0000   -0.0000    0.0000
       10 C1     *200       0.0023   -0.0055   -0.0139    0.0090
       11 C1     *110       0.0285    0.0119   -0.0110   -0.0171
       12 C1     *101       0.0000    0.0000    0.0000    0.0000
       13 C1     *020       0.0008   -0.0019    0.0171   -0.0110
       14 C1     *011       0.0000   -0.0000    0.0000    0.0000
       15 C1     *002      -0.0005    0.0011   -0.0001    0.0001
       16 C2     1s         0.0719   -0.0092   -0.0423   -0.0217
       17 C2     2s        -0.0516    0.0066    0.0179    0.0092
       18 C2     *s        -2.1574    0.2756    1.8622    0.9554
       19 C2     2px       -0.1674    0.0148   -0.0138    0.1202
       20 C2     *px       -1.3953    0.6574   -0.2997    1.0643
       21 C2     2py       -0.0947    0.0234    0.1114   -0.1633
       22 C2     *py       -0.9447   -0.7092    0.9694   -1.6124
       23 C2     2pz       -0.0000    0.0000   -0.0000   -0.0000
       24 C2     *pz        0.0000   -0.0000    0.0000   -0.0000
       25 C2     *200      -0.0047   -0.0129    0.0139   -0.0028
       26 C2     *110       0.0054    0.0149    0.0238    0.0236
       27 C2     *101      -0.0000    0.0000    0.0000   -0.0000
       28 C2     *020      -0.0033    0.0139   -0.0105    0.0045
       29 C2     *011       0.0000   -0.0000    0.0000   -0.0000
       30 C2     *002       0.0012   -0.0002   -0.0001   -0.0001
       31 C3     1s        -0.0439   -0.0577    0.0024    0.0475
       32 C3     2s         0.0315    0.0414   -0.0010   -0.0201
       33 C3     *s         1.3174    1.7306   -0.1037   -2.0904
       34 C3     2px       -0.1069   -0.1297    0.1152    0.0370
       35 C3     *px       -0.5106   -1.4555    1.0933    0.1651
       36 C3     2py        0.0498    0.0839    0.1947   -0.0343
       37 C3     *py        1.1682    0.1755    1.8685   -0.2194
       38 C3     2pz       -0.0000   -0.0000   -0.0000   -0.0000
       39 C3     *pz       -0.0000   -0.0000   -0.0000    0.0000
       40 C3     *200       0.0125   -0.0057    0.0083   -0.0115
       41 C3     *110       0.0144   -0.0066    0.0118    0.0314
       42 C3     *101       0.0000   -0.0000   -0.0000   -0.0000
       43 C3     *020      -0.0076    0.0121   -0.0084    0.0077
       44 C3     *011      -0.0000    0.0000   -0.0000    0.0000
       45 C3     *002      -0.0007   -0.0010    0.0000    0.0002
       46 H4     1s        -0.0120    0.0015    0.1228    0.0630
       47 H4     *s        -0.9926    0.1268   -0.0832   -0.0427
       48 H5     1s         0.0073    0.0096   -0.0068   -0.1378
       49 H5     *s         0.6061    0.7962    0.0046    0.0934
       50 C6     1s        -0.0439   -0.0577   -0.0024   -0.0475
       51 C6     2s         0.0315    0.0414    0.0010    0.0201
       52 C6     *s         1.3174    1.7306    0.1037    2.0904
       53 C6     2px        0.1069    0.1297    0.1152    0.0370
       54 C6     *px        0.5106    1.4555    1.0933    0.1651
       55 C6     2py       -0.0498   -0.0839    0.1947   -0.0343
       56 C6     *py       -1.1682   -0.1755    1.8685   -0.2194
       57 C6     2pz       -0.0000    0.0000    0.0000    0.0000
       58 C6     *pz        0.0000    0.0000    0.0000    0.0000
       59 C6     *200       0.0125   -0.0057   -0.0083    0.0115
       60 C6     *110       0.0144   -0.0066   -0.0118   -0.0314
       61 C6     *101      -0.0000   -0.0000    0.0000   -0.0000
       62 C6     *020      -0.0076    0.0121    0.0084   -0.0077
       63 C6     *011      -0.0000   -0.0000    0.0000   -0.0000
       64 C6     *002      -0.0007   -0.0010   -0.0000   -0.0002
       65 C7     1s         0.0719   -0.0092    0.0423    0.0217
       66 C7     2s        -0.0516    0.0066   -0.0179   -0.0092
       67 C7     *s        -2.1574    0.2756   -1.8622   -0.9554
       68 C7     2px        0.1674   -0.0148   -0.0138    0.1202
       69 C7     *px        1.3953   -0.6574   -0.2997    1.0643
       70 C7     2py        0.0947   -0.0234    0.1114   -0.1633
       71 C7     *py        0.9447    0.7092    0.9694   -1.6124
       72 C7     2pz       -0.0000   -0.0000    0.0000   -0.0000
       73 C7     *pz       -0.0000    0.0000    0.0000    0.0000
       74 C7     *200      -0.0047   -0.0129   -0.0139    0.0028
       75 C7     *110       0.0054    0.0149   -0.0238   -0.0236
       76 C7     *101       0.0000   -0.0000    0.0000   -0.0000
       77 C7     *020      -0.0033    0.0139    0.0105   -0.0045
       78 C7     *011      -0.0000   -0.0000   -0.0000    0.0000
       79 C7     *002       0.0012   -0.0002    0.0001    0.0001
       80 H8     1s         0.0073    0.0096    0.0068    0.1378
       81 H8     *s         0.6061    0.7962   -0.0046   -0.0934
       82 H9     1s        -0.0120    0.0015   -0.1228   -0.0630
       83 H9     *s        -0.9926    0.1268    0.0832    0.0427
       84 C10    1s        -0.0280    0.0668    0.0400   -0.0258
       85 C10    2s         0.0201   -0.0480   -0.0169    0.0109
       86 C10    *s         0.8400   -2.0062   -1.7585    1.1350
       87 C10    2px       -0.0120   -0.0050    0.1228    0.1903
       88 C10    *px        0.8768    0.3671    1.1754    1.8211
       89 C10    2py       -0.0749    0.1788    0.0414   -0.0267
       90 C10    *py       -0.6544    1.5629    0.2126   -0.1372
       91 C10    2pz       -0.0000    0.0000   -0.0000   -0.0000
       92 C10    *pz       -0.0000   -0.0000    0.0000   -0.0000
       93 C10    *200       0.0023   -0.0055    0.0139   -0.0090
       94 C10    *110       0.0285    0.0119    0.0110    0.0171
       95 C10    *101      -0.0000   -0.0000   -0.0000   -0.0000
       96 C10    *020       0.0008   -0.0019   -0.0171    0.0110
       97 C10    *011       0.0000   -0.0000   -0.0000    0.0000
       98 C10    *002      -0.0005    0.0011    0.0001   -0.0001
       99 H11    1s         0.0047   -0.0112   -0.1159    0.0748
      100 H11    *s         0.3865   -0.9230    0.0786   -0.0507
      101 H12    1s         0.0047   -0.0112    0.1159   -0.0748
      102 H12    *s         0.3865   -0.9230   -0.0786    0.0507
--


++    Molecular charges:
      ------------------

      Mulliken charges per centre and basis function type
      ---------------------------------------------------

                C1      C2      C3      H4      H5      C6      C7      H8      H9      C10     H11     H12   
      1s       1.9966  1.9966  1.9966  0.5251  0.5251  1.9966  1.9966  0.5251  0.5251  1.9966  0.5251  0.5251
      2s       0.6692  0.6692  0.6692  0.0000  0.0000  0.6692  0.6692  0.0000  0.0000  0.6692  0.0000  0.0000
      2px      0.7466  0.7312  0.7312  0.0000  0.0000  0.7312  0.7312  0.0000  0.0000  0.7466  0.0000  0.0000
      2pz      0.5164  0.5164  0.5164  0.0000  0.0000  0.5164  0.5164  0.0000  0.0000  0.5164  0.0000  0.0000
      2py      0.7261  0.7415  0.7415  0.0000  0.0000  0.7415  0.7415  0.0000  0.0000  0.7261  0.0000  0.0000
      *s       0.4916  0.4916  0.4916  0.2742  0.2742  0.4916  0.4916  0.2742  0.2742  0.4916  0.2742  0.2742
      *px      0.1695  0.3067  0.3067  0.0000  0.0000  0.3067  0.3067  0.0000  0.0000  0.1695  0.0000  0.0000
      *pz      0.4736  0.4736  0.4736  0.0000  0.0000  0.4736  0.4736  0.0000  0.0000  0.4736  0.0000  0.0000
      *py      0.3524  0.2152  0.2152  0.0000  0.0000  0.2152  0.2152  0.0000  0.0000  0.3524  0.0000  0.0000
      *200     0.0208  0.0282  0.0282  0.0000  0.0000  0.0282  0.0282  0.0000  0.0000  0.0208  0.0000  0.0000
      *110     0.0137  0.0168  0.0168  0.0000  0.0000  0.0168  0.0168  0.0000  0.0000  0.0137  0.0000  0.0000
      *101     0.0072  0.0039  0.0039  0.0000  0.0000  0.0039  0.0039  0.0000  0.0000  0.0072  0.0000  0.0000
      *020     0.0328  0.0222  0.0222  0.0000  0.0000  0.0222  0.0222  0.0000  0.0000  0.0328  0.0000  0.0000
      *011     0.0028  0.0061  0.0061  0.0000  0.0000  0.0061  0.0061  0.0000  0.0000  0.0028  0.0000  0.0000
      *002    -0.0185 -0.0185 -0.0185  0.0000  0.0000 -0.0185 -0.0185  0.0000  0.0000 -0.0185  0.0000  0.0000
      Total    6.2008  6.2008  6.2008  0.7992  0.7992  6.2008  6.2008  0.7992  0.7992  6.2008  0.7992  0.7992

      N-E     -0.2008 -0.2008 -0.2008  0.2008  0.2008 -0.2008 -0.2008  0.2008  0.2008 -0.2008  0.2008  0.2008

      Total electronic charge=   42.000000

      Total            charge=   -0.000000
--


++    Molecular properties:
      ---------------------

      Charge (e):
                      =   -0.0000
      Dipole Moment (Debye):
      Origin of the operator (Ang)=    0.0000    0.0000    0.0000
                   X=  2.7153E-07               Y=  1.0497E-08               Z=  2.7139E-15           Total=  2.7173E-07
      Quadrupole Moment (Debye*Ang):
      Origin of the operator (Ang)=    0.0000    0.0000    0.0000
                  XX= -3.1358E+01              XY=  1.9632E-08              XZ=  2.2914E-15              YY= -3.1358E+01
                  YZ= -3.6029E-15              ZZ= -3.9962E+01
      In traceless form (Debye*Ang)
                  XX=  4.3020E+00              XY=  2.9448E-08              XZ=  3.4371E-15              YY=  4.3020E+00
                  YZ= -5.4044E-15              ZZ= -8.6040E+00
--


      Input file to MOLDEN was generated!

 ###############################################################################
 ###############################################################################
 ###                                                                         ###
 ###                                                                         ###
 ###    WARNING: RunFile label nBas                                          ###
 ###    was used       74 times                                              ###
 ###                                                                         ###
 ###                                                                         ###
 ###############################################################################
 ###############################################################################
--- Stop Module: scf at Sat Jun  1 07:29:03 2024 /rc=_RC_ALL_IS_WELL_ ---
*** files: b.scf.molden b.ScfOrb b.scf.h5 xmldump
    saved to directory /data/home/nisimoto/tutorial_molcas/06
--- Module scf spent 2 seconds ---

*** symbolic link created: INPORB -> b.ScfOrb
--- Start Module: rasscf at Sat Jun  1 07:29:03 2024 ---

()()()()()()()()()()()()()()()()()()()()()()()()()()()()()()()()()()()()()()()()()()()()()()()()()()

                                              &RASSCF

                                   only a single process is used
                       available to each process: 2.0 GB of memory, 1 thread?
                                             pid: 12042
()()()()()()()()()()()()()()()()()()()()()()()()()()()()()()()()()()()()()()()()()()()()()()()()()()


      Header of the ONEINT file:
      --------------------------
      
      Integrals generated by Gateway/Seward, Sat Jun  1 07:28:59 2024


      OrdInt status: non-squared


      Cartesian coordinates in Angstrom:
      -----------------------------------------------------
      No.  Label        X            Y            Z        
      -----------------------------------------------------
       1   C1         0.00000000  -1.39632894   0.00000000
       2   C2        -1.20925634  -0.69816447   0.00000000
       3   C3         1.20925634  -0.69816447   0.00000000
       4   H4        -2.15006074  -1.24133815   0.00000000
       5   H5         2.15006074  -1.24133815   0.00000000
       6   C6        -1.20925634   0.69816447   0.00000000
       7   C7         1.20925634   0.69816447   0.00000000
       8   H8        -2.15006074   1.24133815   0.00000000
       9   H9         2.15006074   1.24133815   0.00000000
      10   C10        0.00000000   1.39632894   0.00000000
      11   H11        0.00000000   2.48267630   0.00000000
      12   H12        0.00000000  -2.48267630   0.00000000
      -----------------------------------------------------
      Nuclear repulsion energy =  203.24093192

++    Wave function specifications:
      -----------------------------

      Number of closed shell electrons          36
      Number of electrons in active shells       6
      Max number of holes in RAS1 space          0
      Max nr of electrons in RAS3 space          0
      Number of inactive orbitals               18
      Number of active orbitals                  6
      Number of secondary orbitals              78
      Spin quantum number                      0.0
      State symmetry                             1
--

++    Orbital specifications:
      -----------------------

      Symmetry species                           1
                                                 a
      Frozen orbitals                            0
      Inactive orbitals                         18
      Active orbitals                            6
      RAS1 orbitals                              0
      RAS2 orbitals                              6
      RAS3 orbitals                              0
      Secondary orbitals                        78
      Deleted orbitals                           0
      Number of basis functions                102
--

++    CI expansion specifications:
      ----------------------------

      Number of CSFs                           175
      Number of determinants                   210
      Number of root(s) required                 1
      Root chosen for geometry opt.              1
      CI root used                               1
         
      highest root included in the CI            1
      max. size of the explicit Hamiltonian    175
--

++    Optimization specifications:
      ----------------------------

      RASSCF algorithm: LK RI/DF
      Maximum number of macro iterations       200
      Maximum number of SX iterations          100
      Threshold for RASSCF energy            1.000E-08
      Threshold for max MO rotation          1.000E-01
      Threshold for max BLB element          1.000E-04
      Level shift parameter                  5.000E-01
      Make Quasi-Newton update
--

      Orbitals from runfile: scf orbitals
      The MO-coefficients are taken from scf orbitals on runfile

      Total molecular charge    0.00

[...]
    33 C3     *s         0.1292   -0.0641    0.0459   -0.0002   -0.0000    0.0101   -0.0000    0.0000   -0.0298   -0.0000
    34 C3     2px        0.0433   -0.2399   -0.0934   -0.1359    0.0446   -0.2788    0.1269   -0.0000    0.0043    0.0000
    35 C3     *px        0.0551   -0.1249    0.0072   -0.0483    0.0155   -0.1595    0.0556   -0.0000    0.0119    0.0000
    36 C3     2py       -0.0249    0.1385    0.0528   -0.2364    0.0768    0.1609    0.2198    0.0000   -0.0025    0.0000
    37 C3     *py       -0.0319    0.0722   -0.0046   -0.0838    0.0266    0.0922    0.0964    0.0000   -0.0069   -0.0000
    38 C3     2pz       -0.0000    0.0000   -0.0000    0.0000   -0.0000   -0.0000    0.0000    0.3265    0.0000   -0.1904
    39 C3     *pz       -0.0000    0.0000   -0.0000    0.0000   -0.0000   -0.0000    0.0000    0.2418    0.0000   -0.1765
    40 C3     *200       0.0046   -0.0058    0.0013    0.0042   -0.0064   -0.0110   -0.0067    0.0000   -0.0003   -0.0000
    41 C3     *110      -0.0068    0.0109   -0.0053    0.0049   -0.0074    0.0275   -0.0077   -0.0000    0.0005   -0.0000
    42 C3     *101       0.0000   -0.0000    0.0000    0.0000    0.0000    0.0000   -0.0000   -0.0126   -0.0000    0.0032
    43 C3     *020       0.0006    0.0005   -0.0018   -0.0042    0.0064    0.0048    0.0067    0.0000   -0.0000    0.0000
    44 C3     *011      -0.0000   -0.0000   -0.0000    0.0000   -0.0000   -0.0000    0.0000    0.0079    0.0000   -0.0009
    45 C3     *002      -0.0035    0.0015   -0.0012   -0.0000    0.0000    0.0006    0.0000   -0.0000    0.0001   -0.0000
    46 H4     1s        -0.0579   -0.1399    0.1221    0.0018    0.1417    0.0900   -0.1415    0.0000    0.0194    0.0000
    47 H4     *s        -0.0261   -0.0777    0.0685    0.0014    0.1102    0.0843   -0.1258    0.0000    0.0103    0.0000
    48 H5     1s         0.0973   -0.1900   -0.0151    0.0001    0.0001   -0.2219   -0.0000    0.0000   -0.0017    0.0000
    49 H5     *s         0.0293   -0.1055   -0.0299    0.0002    0.0001   -0.1845    0.0000   -0.0000   -0.0075   -0.0000
    50 C6     1s        -0.0917    0.0048    0.0681   -0.0003    0.0000   -0.0194   -0.0000    0.0000    0.0928   -0.0000
    51 C6     2s         0.1818   -0.0075   -0.1406    0.0005   -0.0001    0.0412    0.0000   -0.0000   -0.1978    0.0000
    52 C6     *s         0.1499   -0.0375   -0.0865    0.0004   -0.0000    0.0170    0.0000   -0.0000   -0.1464   -0.0000
    53 C6     2px        0.1080    0.0095   -0.0877   -0.1339    0.0428    0.0070   -0.1286   -0.0000    0.3343    0.0000
    54 C6     *px        0.0368   -0.0337    0.0012   -0.0477    0.0151    0.0128   -0.0567   -0.0000    0.1774   -0.0000
    55 C6     2py       -0.0623   -0.0054    0.0494   -0.2329    0.0741   -0.0041   -0.2228    0.0000   -0.1930    0.0000
    56 C6     *py       -0.0213    0.0195   -0.0011   -0.0827    0.0262   -0.0074   -0.0983    0.0000   -0.1024    0.0000
    57 C6     2pz       -0.0000    0.0000    0.0000    0.0000   -0.0000   -0.0000    0.0000    0.0552   -0.0000    0.3862
    58 C6     *pz       -0.0000    0.0000    0.0000    0.0000   -0.0000   -0.0000   -0.0000    0.0126   -0.0000    0.2853
    59 C6     *200       0.0006    0.0025   -0.0003   -0.0042    0.0063   -0.0029   -0.0069    0.0000   -0.0123    0.0000
    60 C6     *110       0.0052   -0.0099    0.0000   -0.0048    0.0073    0.0099   -0.0079    0.0000    0.0251    0.0000
    61 C6     *101       0.0000   -0.0000   -0.0000    0.0000   -0.0000    0.0000    0.0000    0.0059    0.0000    0.0107
    62 C6     *020       0.0036   -0.0032   -0.0002    0.0042   -0.0063    0.0028    0.0069   -0.0000    0.0022    0.0000
    63 C6     *011       0.0000   -0.0000    0.0000    0.0000   -0.0000    0.0000   -0.0000   -0.0029   -0.0000   -0.0052
    64 C6     *002      -0.0035    0.0001    0.0018   -0.0000    0.0000   -0.0005   -0.0000    0.0000    0.0055   -0.0000
    65 C7     1s         0.0651   -0.0307    0.0285   -0.0004   -0.0177   -0.0099   -0.0042   -0.0000    0.0072   -0.0000
    66 C7     2s        -0.1307    0.0653   -0.0569    0.0009    0.0396    0.0186    0.0134    0.0000   -0.0181   -0.0000
    67 C7     *s        -0.1077    0.0166   -0.0283    0.0006    0.0256    0.0162   -0.0034    0.0000   -0.0001    0.0000
    68 C7     2px        0.0064   -0.1362   -0.2041   -0.1357   -0.2411    0.1821   -0.1022   -0.0000    0.0223    0.0000
    69 C7     *px       -0.0292   -0.0200   -0.1346   -0.0480   -0.1048    0.0998   -0.0695   -0.0000    0.0029   -0.0000
    70 C7     2py       -0.1795   -0.0483   -0.1209    0.2367   -0.0922   -0.1647   -0.2048   -0.0000   -0.0128   -0.0000
    71 C7     *py       -0.0688   -0.0002   -0.0766    0.0842   -0.0447   -0.0553   -0.1047    0.0000   -0.0188   -0.0000
    72 C7     2pz        0.0000    0.0000   -0.0000    0.0000   -0.0000   -0.0000    0.0000    0.2629    0.0000   -0.0421
    73 C7     *pz        0.0000    0.0000   -0.0000    0.0000   -0.0000   -0.0000   -0.0000    0.1871    0.0000   -0.0538
    74 C7     *200      -0.0067    0.0000   -0.0097    0.0044   -0.0019   -0.0039   -0.0110   -0.0000    0.0016    0.0000
    75 C7     *110      -0.0004    0.0029   -0.0144   -0.0049   -0.0146    0.0191   -0.0156    0.0000    0.0008    0.0000
    76 C7     *101      -0.0000   -0.0000    0.0000   -0.0000    0.0000   -0.0000   -0.0000   -0.0070    0.0000   -0.0096
    77 C7     *020       0.0023   -0.0011    0.0052   -0.0042   -0.0019    0.0056    0.0069    0.0000   -0.0005    0.0000
    78 C7     *011       0.0000   -0.0000    0.0000   -0.0000    0.0000    0.0000   -0.0000   -0.0136   -0.0000    0.0141
    79 C7     *002       0.0025   -0.0010    0.0013   -0.0000   -0.0000   -0.0004    0.0004   -0.0000   -0.0002   -0.0000
    80 H8     1s        -0.0110    0.0101    0.0080   -0.0001    0.0000   -0.0141   -0.0000    0.0000   -0.3261   -0.0000
    81 H8     *s        -0.0451    0.0162    0.0450   -0.0002    0.0000   -0.0409   -0.0000    0.0000   -0.2155   -0.0000
    82 H9     1s        -0.0962   -0.0486   -0.1766    0.0010   -0.1433    0.0678   -0.1399    0.0000    0.0071    0.0000
    83 H9     *s        -0.0339   -0.0446   -0.1103    0.0006   -0.1114    0.0526   -0.1240   -0.0000    0.0202    0.0000
    84 C10    1s         0.0234    0.0319   -0.0328    0.0005   -0.0178    0.0175    0.0046    0.0000   -0.0150   -0.0000
    85 C10    2s        -0.0458   -0.0634    0.0670   -0.0009    0.0396   -0.0398   -0.0144   -0.0000    0.0341    0.0000
    86 C10    *s        -0.0564   -0.0535    0.0279   -0.0017    0.0265   -0.0143    0.0023   -0.0000    0.0188   -0.0000
    87 C10    2px       -0.2051    0.0694    0.1024    0.2709    0.0418   -0.1729    0.1300   -0.0000   -0.0417   -0.0000
    88 C10    *px       -0.0580    0.0239    0.0374    0.0970    0.0149   -0.0765    0.0577   -0.0000   -0.0353   -0.0000
    89 C10    2py       -0.0821   -0.1936    0.1432   -0.0035   -0.2521    0.1534    0.1935   -0.0000   -0.0139   -0.0000
    90 C10    *py       -0.0252   -0.1085    0.1152   -0.0016   -0.1125    0.0653    0.1142    0.0000    0.0320    0.0000
    91 C10    2pz        0.0000   -0.0000   -0.0000    0.0000   -0.0000    0.0000    0.0000    0.1240    0.0000    0.2510
    92 C10    *pz        0.0000   -0.0000   -0.0000    0.0000   -0.0000    0.0000    0.0000    0.0673    0.0000    0.1885
    93 C10    *200      -0.0016    0.0033   -0.0060    0.0001    0.0043   -0.0042   -0.0093    0.0000   -0.0056   -0.0000
    94 C10    *110       0.0143   -0.0063   -0.0117   -0.0097   -0.0073    0.0071   -0.0078   -0.0000    0.0053   -0.0000
    95 C10    *101       0.0000   -0.0000   -0.0000   -0.0000   -0.0000    0.0000   -0.0000    0.0081    0.0000   -0.0154
    96 C10    *020      -0.0010   -0.0071    0.0092   -0.0002   -0.0080    0.0068    0.0133   -0.0000    0.0047   -0.0000
    97 C10    *011       0.0000    0.0000    0.0000   -0.0000    0.0000   -0.0000   -0.0000   -0.0089   -0.0000   -0.0088
    98 C10    *002       0.0010    0.0011   -0.0013    0.0000   -0.0000    0.0001   -0.0004    0.0000   -0.0002   -0.0000
    99 H11    1s        -0.0580   -0.1400    0.1222   -0.0027   -0.1417    0.0899    0.1415   -0.0000    0.0194   -0.0000
   100 H11    *s        -0.0261   -0.0777    0.0685   -0.0019   -0.1102    0.0842    0.1258   -0.0000    0.0103   -0.0000
   101 H12    1s        -0.0962   -0.0485   -0.1766    0.0002    0.1432    0.0679    0.1400   -0.0000    0.0071   -0.0000
   102 H12    *s        -0.0339   -0.0445   -0.1103    0.0001    0.1113    0.0527    0.1241   -0.0000    0.0201   -0.0000


      Orbital                21        22        23        24
      Energy             0.0000   -0.0000    0.0000   -0.3391
      Occ. No.           1.9361    0.0652    0.0650    0.0187

     1 C1     1s         0.0000   -0.0000   -0.0000    0.0058
     2 C1     2s        -0.0000    0.0000    0.0000    0.0003
     3 C1     *s        -0.0000    0.0000    0.0000   -0.1770
     4 C1     2px        0.0000   -0.0000   -0.0000    0.0167
     5 C1     *px        0.0000   -0.0000   -0.0000    0.0161
     6 C1     2py       -0.0000   -0.0000   -0.0000   -0.0162
     7 C1     *py       -0.0000   -0.0000   -0.0000   -0.1109
     8 C1     2pz        0.2795    0.3163   -0.1797   -0.0000
     9 C1     *pz        0.2318    0.2808   -0.2093   -0.0000
    10 C1     *200      -0.0000    0.0000    0.0000   -0.0006
    11 C1     *110      -0.0000   -0.0000   -0.0000    0.0018
    12 C1     *101      -0.0105   -0.0068   -0.0274   -0.0000
    13 C1     *020       0.0000    0.0000   -0.0000   -0.0000
    14 C1     *011       0.0079    0.0017    0.0021   -0.0000
    15 C1     *002       0.0000   -0.0000   -0.0000    0.0014
    16 C2     1s        -0.0000   -0.0000   -0.0000   -0.0124
    17 C2     2s        -0.0000    0.0000    0.0000   -0.0008
    18 C2     *s         0.0000    0.0000    0.0000    0.2468
    19 C2     2px        0.0000    0.0000    0.0000   -0.0244
    20 C2     *px        0.0000    0.0000    0.0000    0.1105
    21 C2     2py        0.0000   -0.0000   -0.0000    0.0358
    22 C2     *py        0.0000   -0.0000   -0.0000    0.0795
    23 C2     2pz        0.2907   -0.0922    0.5237   -0.0000
    24 C2     *pz        0.2324   -0.0388    0.4065    0.0000
    25 C2     *200       0.0000    0.0000    0.0000    0.0004
    26 C2     *110       0.0000   -0.0000   -0.0000    0.0040
    27 C2     *101       0.0118    0.0126    0.0024    0.0000
    28 C2     *020       0.0000   -0.0000   -0.0000   -0.0022
    29 C2     *011      -0.0046   -0.0291   -0.0050   -0.0000
    30 C2     *002      -0.0000   -0.0000   -0.0000   -0.0033
    31 C3     1s        -0.0000    0.0000    0.0000   -0.0010
    32 C3     2s         0.0000   -0.0000   -0.0000   -0.0082
    33 C3     *s        -0.0000   -0.0000   -0.0000    0.1416
    34 C3     2px        0.0000    0.0000   -0.0000    0.0016
    35 C3     *px        0.0000   -0.0000   -0.0000   -0.0826
    36 C3     2py       -0.0000   -0.0000   -0.0000   -0.0010
    37 C3     *py       -0.0000   -0.0000   -0.0000    0.0478
    38 C3     2pz       -0.0012   -0.1461   -0.1605   -0.0000
    39 C3     *pz       -0.0028   -0.1533   -0.1628    0.0000
    40 C3     *200      -0.0000   -0.0000   -0.0000   -0.0002
    41 C3     *110      -0.0000   -0.0000   -0.0000    0.0009
    42 C3     *101      -0.0110   -0.0102    0.0119   -0.0000
    43 C3     *020       0.0000    0.0000   -0.0000    0.0004
    44 C3     *011      -0.0188   -0.0212    0.0164   -0.0000
    45 C3     *002      -0.0000    0.0000    0.0000   -0.0009
    46 H4     1s         0.0000    0.0000    0.0000    0.0084
    47 H4     *s         0.0000   -0.0000   -0.0000    0.0283
    48 H5     1s         0.0000   -0.0000   -0.0000    0.0009
    49 H5     *s        -0.0000    0.0000    0.0000    0.0217
    50 C6     1s         0.0000    0.0000    0.0000    0.1119
    51 C6     2s        -0.0000   -0.0000   -0.0000   -0.6328
    52 C6     *s        -0.0000   -0.0000   -0.0000   -0.4881
    53 C6     2px       -0.0000    0.0000    0.0000    0.7090
    54 C6     *px       -0.0000   -0.0000   -0.0000   -0.0849
    55 C6     2py       -0.0000   -0.0000   -0.0000   -0.4092
    56 C6     *py        0.0000    0.0000   -0.0000    0.0489
    57 C6     2pz        0.0172   -0.3974   -0.4706    0.0000
    58 C6     *pz        0.0121   -0.2367   -0.2829    0.0000
    59 C6     *200      -0.0000   -0.0000   -0.0000   -0.0205
    60 C6     *110      -0.0000    0.0000   -0.0000    0.1090
    61 C6     *101      -0.0095    0.0190   -0.0048    0.0000
    62 C6     *020       0.0000    0.0000    0.0000    0.0425
    63 C6     *011      -0.0177    0.0204   -0.0237   -0.0000
    64 C6     *002       0.0000    0.0000    0.0000    0.0408
    65 C7     1s        -0.0000    0.0000    0.0000    0.0058
    66 C7     2s         0.0000   -0.0000   -0.0000    0.0003
    67 C7     *s         0.0000   -0.0000   -0.0000   -0.1770
    68 C7     2px       -0.0000   -0.0000   -0.0000    0.0225
    69 C7     *px       -0.0000   -0.0000   -0.0000    0.1041
    70 C7     2py       -0.0000    0.0000    0.0000   -0.0064
    71 C7     *py       -0.0000    0.0000    0.0000    0.0415
    72 C7     2pz       -0.2712   -0.2119    0.2690   -0.0000
    73 C7     *pz       -0.2281   -0.2411    0.2363    0.0000
    74 C7     *200       0.0000    0.0000    0.0000   -0.0009
    75 C7     *110       0.0000   -0.0000   -0.0000    0.0014
    76 C7     *101       0.0111   -0.0144   -0.0072   -0.0000
    77 C7     *020       0.0000   -0.0000   -0.0000    0.0003
    78 C7     *011      -0.0046    0.0221    0.0081    0.0000
    79 C7     *002       0.0000    0.0000    0.0000    0.0014
    80 H8     1s         0.0000    0.0000    0.0000    0.7109
    81 H8     *s        -0.0000    0.0000    0.0000    0.4749
    82 H9     1s         0.0000   -0.0000   -0.0000    0.0041
    83 H9     *s         0.0000   -0.0000   -0.0000   -0.0220
    84 C10    1s         0.0000   -0.0000   -0.0000   -0.0124
    85 C10    2s        -0.0000    0.0000    0.0000   -0.0008
    86 C10    *s        -0.0000    0.0000    0.0000    0.2469
    87 C10    2px        0.0000    0.0000    0.0000   -0.0431
    88 C10    *px       -0.0000    0.0000    0.0000   -0.0135
    89 C10    2py        0.0000    0.0000    0.0000    0.0031
    90 C10    *py        0.0000    0.0000    0.0000   -0.1355
    91 C10    2pz       -0.2654    0.5218   -0.0018    0.0000
    92 C10    *pz       -0.2154    0.4041    0.0331   -0.0000
    93 C10    *200      -0.0000    0.0000    0.0000   -0.0033
    94 C10    *110      -0.0000   -0.0000   -0.0000   -0.0002
    95 C10    *101      -0.0109    0.0006    0.0315    0.0000
    96 C10    *020       0.0000   -0.0000    0.0000    0.0015
    97 C10    *011       0.0068    0.0001    0.0038    0.0000
    98 C10    *002       0.0000   -0.0000    0.0000   -0.0033
    99 H11    1s        -0.0000    0.0000    0.0000    0.0084
   100 H11    *s        -0.0000   -0.0000   -0.0000    0.0284
   101 H12    1s         0.0000    0.0000    0.0000    0.0041
   102 H12    *s        -0.0000   -0.0000   -0.0000   -0.0219
--

      Von Neumann Entropy (Root   1) =  0.49058


      Mulliken population analysis for root number:  1
      -----------------------------------------------


++    Molecular charges:
      ------------------

      Mulliken charges per centre and basis function type
      ---------------------------------------------------

                C1      C2      C3      H4      H5      C6      C7      H8      H9      C10     H11     H12   
      1s       1.9966  1.9966  1.9966  0.5253  0.5252  1.9966  1.9966  0.5341  0.5252  1.9966  0.5253  0.5252
      2s       0.6684  0.6671  0.6686  0.0000  0.0000  0.6720  0.6684  0.0000  0.0000  0.6672  0.0000  0.0000
      2px      0.7463  0.7278  0.7307  0.0000  0.0000  0.7348  0.7307  0.0000  0.0000  0.7459  0.0000  0.0000
      2pz      0.5225  0.5351  0.5176  0.0000  0.0000  0.5461  0.5215  0.0000  0.0000  0.5341  0.0000  0.0000
      2py      0.7250  0.7407  0.7412  0.0000  0.0000  0.7389  0.7408  0.0000  0.0000  0.7230  0.0000  0.0000
      *s       0.4923  0.4921  0.4920  0.2771  0.2753  0.4785  0.4923  0.3011  0.2756  0.4922  0.2770  0.2757
      *px      0.1702  0.3094  0.3066  0.0000  0.0000  0.2812  0.3065  0.0000  0.0000  0.1726  0.0000  0.0000
      *pz      0.4690  0.4542  0.4747  0.0000  0.0000  0.4415  0.4704  0.0000  0.0000  0.4552  0.0000  0.0000
      *py      0.3527  0.2175  0.2157  0.0000  0.0000  0.2073  0.2163  0.0000  0.0000  0.3542  0.0000  0.0000
      *200     0.0208  0.0284  0.0282  0.0000  0.0000  0.0264  0.0283  0.0000  0.0000  0.0211  0.0000  0.0000
      *110     0.0137  0.0167  0.0168  0.0000  0.0000  0.0165  0.0169  0.0000  0.0000  0.0136  0.0000  0.0000
      *101     0.0071  0.0037  0.0040  0.0000  0.0000  0.0036  0.0037  0.0000  0.0000  0.0070  0.0000  0.0000
      *020     0.0329  0.0225  0.0221  0.0000  0.0000  0.0210  0.0222  0.0000  0.0000  0.0329  0.0000  0.0000
      *011     0.0027  0.0058  0.0063  0.0000  0.0000  0.0058  0.0062  0.0000  0.0000  0.0026  0.0000  0.0000
      *002    -0.0184 -0.0181 -0.0185  0.0000  0.0000 -0.0187 -0.0184  0.0000  0.0000 -0.0182  0.0000  0.0000
      Total    6.2018  6.1996  6.2027  0.8025  0.8005  6.1514  6.2023  0.8352  0.8008  6.2000  0.8023  0.8009

      N-E     -0.2018 -0.1996 -0.2027  0.1975  0.1995 -0.1514 -0.2023  0.1648  0.1992 -0.2000  0.1977  0.1991

      Total electronic charge=   42.000000

      Total            charge=   -0.000000
--



      Expectation values of various properties for root number:  1
      -----------------------------------------------------------


++    Molecular properties:
      ---------------------

      Charge (e):
                      =   -0.0000
      Dipole Moment (Debye):
      Origin of the operator (Ang)=    0.0000    0.0000    0.0000
                   X= -3.4828E-02               Y=  1.7635E-02               Z=  7.9385E-13           Total=  3.9038E-02
      Quadrupole Moment (Debye*Ang):
      Origin of the operator (Ang)=    0.0000    0.0000    0.0000
                  XX= -3.1569E+01              XY=  4.3176E-02              XZ=  2.4768E-14              YY= -3.1511E+01
                  YZ= -5.4823E-13              ZZ= -3.9631E+01
      In traceless form (Debye*Ang)
                  XX=  4.0017E+00              XY=  6.4763E-02              XZ=  3.7152E-14              YY=  4.0893E+00
                  YZ= -8.2234E-13              ZZ= -8.0910E+00
--


      Input file to MOLDEN was generated!

      Average orbitals are written to the RASORB file
      Natural orbitals for root   1 are written to the RASORB.1 file
      Spin density orbitals for root   1 are written to the SPDORB.1 file

 ###############################################################################
 ###############################################################################
 ###                                                                         ###
 ###                                                                         ###
 ###    WARNING: RunFile label BirthCertificate                              ###
 ###    was used       69 times                                              ###
 ###                                                                         ###
 ###                                                                         ###
 ###############################################################################
 ###############################################################################
--- Stop Module: rasscf at Sat Jun  1 07:29:29 2024 /rc=_RC_ALL_IS_WELL_ ---
*** files: b.rasscf.molden b.RasOrb.1 b.RasOrb b.rasscf.h5 b.SpdOrb.1 xmldump
    saved to directory /data/home/nisimoto/tutorial_molcas/06
--- Module rasscf spent 26 seconds ---

.##################.
.# Happy landing! #.
.##################.

    Timing: Wall=30.67 User=26.27 System=0.90
*************************************
*** WorkDir at /dev/shm/b cleaned ***
*************************************
