   This run of MOLCAS is using the pymolcas driver

                             OPE
                             OPE          NMOL  CASOP  ENMOLC A   SO
                 OPE        NMOLC        AS  OP EN  MO LC     AS  OP
                OPENM       OL CA        SO  PE NM  OL CA     SOP EN
                OP EN      MO   LC       AS  OP ENMOL  CASO   PENMOL
                OP  EN     MO   LC       AS  OP EN     MO     LC ASO
               OP   E  NMOL  C  AS       OP  EN MO     LC     AS  OP
               OP  E   NMO   LC AS        OPEN  MO     LCASOP EN   M
               O  PEN   MO  LCA  SO
            OPE   NMO   L   CAS    OP
        OPENMOL  CASOP     ENMOL   CASOPE
     OPENMOLCA   SOPENMOLCASOPEN   MOLCASOPE
    OPENMOLCAS   OP           EN   MOL    CAS
    OPENMOLCAS       OP  ENM        O     LCA
    OPENMOLCAS    OPEN  MOLCASO     P  E  NMO
    OPENMOLCAS     OP               E  N  MOL
    OPENMOLCA   SO           PENM   O  L  CAS    OPEN    MO    LCAS
    OPENMOLCA   SOP           ENM   O  L  CAS   OP  EN  MOLC  AS   O
    OPENMOLCA   SOPE           NM      O  LCA   S      OP  EN MO
    OPENMOLC                AS         O  PEN   M      OL  CA  SOPE
    OPENMO        LCASOPE  NMOL        C  ASO   P      ENMOLC     AS
    OPE     NMO      LCA  SO     P     E   NM   OL  CA SO  PE N   MO
          OPENMOLCA            SOPE   NMO        LCAS  O    P  ENMO
     OPENMOLCASOPENMOLCASOPENMOLCASOPENMOLCA
        OPENMOLCASOPENMOLCASOPENMOLCASOPE
            OPENMOLCASOPENMOLCASOPENM
               OPENMOLCASOPENMOLCA        version: 23.06
                   OPENMOLCASO
                       OPE                tag: 823-gdbb6ed0-dirty

 OpenMolcas is free software; you can redistribute it and/or modify it
 under the terms of the GNU Lesser General Public License version 2.1.
 OpenMolcas is distributed in the hope that it will be useful, but it
 is provided "as is" and without any express or implied warranties.
 For more details see the full text of the license in the file
 LICENSE or in <http://www.gnu.org/licenses/>.

                 Copyright (C) The OpenMolcas Authors
           For the author list and the recommended citation,
                   consult the file CONTRIBUTORS.md

           *************************************************
           * pymolcas version py2.10                       *
           *   build 3068ae8b88c9345ec6cfef6fef7f1169      *
           *   (after the EMIL interpreter by V. Veryazov) *
           *************************************************

configuration info
------------------
Host name: yn1.fukui.kyoto-u.ac.jp (Linux)
C Compiler ID: GNU
C flags: -std=gnu99 -fopenmp
Fortran Compiler ID: GNU
Fortran flags: -fno-aggressive-loop-optimizations -cpp -fdefault-integer-8 -fopenmp
Definitions: _MOLCAS_;_I8_;_LINUX_;_MOLCAS_MPP_;_SCALAPACK_;_GA_
Parallel: ON (GA=ON)


   ------------------------------------------------------------------------------------------------------
  |
  |              Project: a
  |       Submitted from: /data/home/nisimoto/tutorial_molcas/07
  |         Scratch area: /dev/shm/a
  |      Save outputs to: /data/home/nisimoto/tutorial_molcas/07
  |               Molcas: /data/home/nisimoto/molcas/parallel/OpenMolcas/builds/gnu_normal_mpi_omp_ga_mkl
  |
  | Scratch area is empty
  |
  |       MOLCAS_DRIVER = /data/home/nisimoto/bin/pymolcas
  | MOLCAS_KEEP_WORKDIR = NO
  |       MOLCAS_NPROCS = 1
  |       MOLCAS_SOURCE = /data/home/nisimoto/molcas/parallel/OpenMolcas/builds/gnu_normal_mpi_omp_ga_mkl
  |    MOLCAS_STRUCTURE = 0
  |
   ------------------------------------------------------------------------------------------------------

++ ---------   Input file   ---------

&GATEWAY
  Coord
  6
  ethylene
  C1              -0.658467        0.000000        0.000000
  C2               0.658467        0.000000        0.000000
  H3              -1.225694        0.914334        0.000000
  H4              -1.225694       -0.914334        0.000000
  H5               1.225694        0.914334        0.000000
  H6               1.225694       -0.914334        0.000000
  Basis = 6-31G*
  Group = C1
  RICD

&SEWARD

&SCF

&RASSCF
  Inactive = 7
  RAS2   = 2
  nActEl = 2 0 0

&CASPT2
  IPEA = 0.00
  IMAGinary = 0.20

-- ----------------------------------

--- Start Module: gateway at Tue Jun 18 23:42:24 2024 ---

()()()()()()()()()()()()()()()()()()()()()()()()()()()()()()()()()()()()()()()()()()()()()()()()()()

                                              &GATEWAY

                       only a single process is used, running in SERIAL mode
                       available to each process: 2.0 GB of memory, 6 threads
                                             pid: 20956
()()()()()()()()()()()()()()()()()()()()()()()()()()()()()()()()()()()()()()()()()()()()()()()()()()


++    Symmetry information:
      ---------------------

                    Character Table for C1 

                             E  
                    a        1  x, y, xy, Rz, z, xz, Ry, yz, Rx, I
--


++    Basis set information:
      ----------------------


      Basis set label: C.6-31G**....

      Electronic valence basis set:
      ------------------
      Associated Effective Charge   6.000000 au
      Associated Actual Charge      6.000000 au
      Nuclear Model: Point charge

      Shell  nPrim  nBasis  Cartesian Spherical Contaminant
         s      10       3        X                  
         p       4       2        X                  
         d       1       1        X                  


      Basis set label: H.6-31G....

      Electronic valence basis set:
      ------------------
      Associated Effective Charge   1.000000 au
      Associated Actual Charge      1.000000 au
      Nuclear Model: Point charge

      Shell  nPrim  nBasis  Cartesian Spherical Contaminant
         s       4       2        X                  
--


++    Molecular structure info:
      -------------------------

                    ************************************************ 
                    **** Cartesian Coordinates / Bohr, Angstrom **** 
                    ************************************************ 

     Center  Label                x              y              z                     x              y              z
        1      C1              -1.244322       0.000000       0.000000             -0.658467       0.000000       0.000000
        2      C2               1.244322       0.000000       0.000000              0.658467       0.000000       0.000000
        3      H3              -2.316226       1.727841       0.000000             -1.225694       0.914334       0.000000
        4      H4              -2.316226      -1.727841       0.000000             -1.225694      -0.914334       0.000000
        5      H5               2.316226       1.727841       0.000000              1.225694       0.914334       0.000000
        6      H6               2.316226      -1.727841       0.000000              1.225694      -0.914334       0.000000

                    *************************************** 
                    *    InterNuclear Distances / Bohr    * 
                    *************************************** 

               1 C1            2 C2            3 H3            4 H4            5 H5            6 H6    
    1 C1       0.000000
    2 C2       2.488645        0.000000
    3 H3       2.033325        3.957643        0.000000
    4 H4       2.033325        3.957643        3.455682        0.000000
    5 H5       3.957643        2.033325        4.632452        5.779390        0.000000
    6 H6       3.957643        2.033325        5.779390        4.632452        3.455682        0.000000

                    ******************************************* 
                    *    InterNuclear Distances / Angstrom    * 
                    ******************************************* 

               1 C1            2 C2            3 H3            4 H4            5 H5            6 H6    
    1 C1       0.000000
    2 C2       1.316934        0.000000
    3 H3       1.075989        2.094294        0.000000
    4 H4       1.075989        2.094294        1.828668        0.000000
    5 H5       2.094294        1.075989        2.451388        3.058321        0.000000
    6 H6       2.094294        1.075989        3.058321        2.451388        1.828668        0.000000

                    ************************************** 
                    *    Valence Bond Angles / Degree    * 
                    ************************************** 
                          Atom centers                 Phi
                      2 C2       1 C1       3 H3       121.81
                      2 C2       1 C1       4 H4       121.81
                      3 H3       1 C1       4 H4       116.37
                      1 C1       2 C2       5 H5       121.81
                      1 C1       2 C2       6 H6       121.81
                      5 H5       2 C2       6 H6       116.37

           ***************************************************************
           *              Valence Dihedral Angles / Degree               *
           ***************************************************************
                    Atom centers                       Phi1     Phi2     Theta 
           3 H3       1 C1       2 C2       5 H5        121.81   121.81    -0.00
           3 H3       1 C1       2 C2       6 H6        121.81   121.81  -180.00
           4 H4       1 C1       2 C2       5 H5        121.81   121.81  -180.00
           4 H4       1 C1       2 C2       6 H6        121.81   121.81    -0.00
--


            Nuclear Potential Energy             33.68979800 au

--- Stop Module: gateway at Tue Jun 18 23:42:25 2024 /rc=_RC_ALL_IS_WELL_ ---
*** files: a.RICDLib xmldump
    saved to directory /data/home/nisimoto/tutorial_molcas/07
--- Module gateway spent 1 second ---

--- Start Module: seward at Tue Jun 18 23:42:25 2024 ---

()()()()()()()()()()()()()()()()()()()()()()()()()()()()()()()()()()()()()()()()()()()()()()()()()()

                                              &SEWARD

                       only a single process is used, running in SERIAL mode
                       available to each process: 2.0 GB of memory, 6 threads
                                             pid: 20967
()()()()()()()()()()()()()()()()()()()()()()()()()()()()()()()()()()()()()()()()()()()()()()()()()()

               SEWARD will generate:
                  Multipole Moment integrals up to order  2
                  Kinetic Energy integrals
                  Nuclear Attraction integrals (point charge)
                  One-Electron Hamiltonian integrals
                  Velocity integrals
                  Orbital angular momentum around ( 0.0000  0.0000  0.0000 )
                  Velocity quadrupole around ( 0.0000  0.0000  0.0000 )
                  RI decomposed two-electron repulsion integrals stored Cholesky style
                   - acCD auxiliary basis
                   - CD Threshold:   0.10E-03

                   Integrals are discarded if absolute value <: 1.00E-14
                   Integral cutoff threshold is set to       <: 1.00E-16

            Nuclear Potential Energy             33.68979800 au


      Basis set specifications :
      Symmetry species         a  
      Basis functions           38


      Input file to MOLDEN was generated!

--- Stop Module: seward at Tue Jun 18 23:42:26 2024 /rc=_RC_ALL_IS_WELL_ ---
*** files: a.GssOrb a.guessorb.molden xmldump
    saved to directory /data/home/nisimoto/tutorial_molcas/07

*** symbolic link created: INPORB -> a.GssOrb
--- Start Module: scf at Tue Jun 18 23:42:26 2024 ---

()()()()()()()()()()()()()()()()()()()()()()()()()()()()()()()()()()()()()()()()()()()()()()()()()()

                                                &SCF

                       only a single process is used, running in SERIAL mode
                       available to each process: 2.0 GB of memory, 6 threads
                                             pid: 20975
()()()()()()()()()()()()()()()()()()()()()()()()()()()()()()()()()()()()()()()()()()()()()()()()()()

++    Input section:
      --------------

      Header of the integral files:
      
       Integrals generated by Gateway/Seward, Tue Jun 18 23:42:26 2024


      Cartesian coordinates in Angstrom:
      -----------------------------------------------------
      No.  Label        X            Y            Z        
      -----------------------------------------------------
       1   C1        -0.65846700   0.00000000   0.00000000
       2   C2         0.65846700   0.00000000   0.00000000
       3   H3        -1.22569400   0.91433400   0.00000000
       4   H4        -1.22569400  -0.91433400   0.00000000
       5   H5         1.22569400   0.91433400   0.00000000
       6   H6         1.22569400  -0.91433400   0.00000000
      -----------------------------------------------------
      Nuclear repulsion energy =   33.68979800
--

++    Orbital specifications:
      -----------------------

      Symmetry species               1
                                     a
      Frozen orbitals                0
      Occupied orbitals              8
      Secondary orbitals            30
      Deleted orbitals               0
      Total number of orbitals      38
      Number of basis functions     38
--

      Molecular charge                           0.000

++    Optimization specifications:
      ----------------------------

      SCF Algorithm: LK-RI/DF
      LK screening threshold:                     4.50E-02
      Local-Exchange (LK) algorithm.
       - the density matrix is decomposed
      The actual AO density is used
      Number of density matrices in core                 5
      Maximum number of NDDO SCF iterations            400
      Maximum number of HF SCF iterations              400
      Threshold for SCF energy change             1.00E-09
      Threshold for density matrix                1.00E-04
      Threshold for Fock matrix                   1.50E-04
      Threshold for linear dependence             1.00E-09
      Threshold at which DIIS is turned on        1.50E-01
      Maximum depth in the DIIS procedure                5
      Maximum depth in the BFGS Hessian update          30
      Threshold at which QNR/C2DIIS is turned on  7.50E-02
      Threshold for Norm(delta) (QNR/C2DIIS)      1.00E-03
      All orbitals punched on: SCFORB
--

      Input vectors read from INPORB
      Orbital file label: *Guess orbitals


++ Convergence information
                                   SCF        iterations: Energy and convergence statistics

Iter     Tot. SCF        One-elec.       Two-elec.     Energy      Max Dij or  Max Fij      DNorm      TNorm      AccCon     Time
         Energy          Energy          Energy        Change      Delta Norm                                                in Sec.
   1   -77.866020851  -168.428859105    56.873040251   0.00E+00    1.87E-01*   1.28E-01*    4.01E+00   8.20E+01   None         0.
   2   -78.015699340  -171.401730390    59.696233047  -1.50E-01*   1.21E-01*   6.88E-02*    4.07E+00   8.38E+01   EDIIS        0.
   3   -78.029649080  -170.410187747    58.690740664  -1.39E-02*   1.83E-02*   1.55E-02*    4.04E+00   8.31E+01   c2DIIS       0.
   4   -78.031413715  -170.725781717    59.004569999  -1.76E-03*   6.47E-03*   6.27E-03*    4.06E+00   8.33E+01   QNRc2DIIS    0.
   5   -78.031529972  -170.685670038    58.964342063  -1.16E-04*   2.97E-03*   1.51E-03*    4.06E+00   8.33E+01   QNRc2DIIS    0.
   6   -78.031544135  -170.700365079    58.979022941  -1.42E-05*   2.45E-04    1.81E-04*    4.06E+00   8.33E+01   QNRc2DIIS    0.
   7   -78.031544347  -170.697893841    58.976551492  -2.11E-07*   5.31E-05    2.96E-05     4.06E+00   8.33E+01   QNRc2DIIS    0.
   8   -78.031544353  -170.697898298    58.976555942  -6.15E-09*   5.45E-06    2.52E-06     4.06E+00   8.33E+01   QNRc2DIIS    0.
 DIIS_X: Reduction of the subspace dimension due to numerical imbalance of the values in the B-Matrix
 kOptim=                    5 -> kOptim=                    4
   9   -78.031544353  -170.697903994    58.976561638  -4.51E-11    2.22E-07    1.16E-07     4.06E+00   8.33E+01   QNRc2DIIS    0.

       Convergence after   9 Macro Iterations
--

 *****************************************************************************************************************************
 *                                                                                                                           *
 *                                             SCF/KS-DFT Program, Final results                                             *
 *                                                                                                                           *
 *                                                                                                                           *
 *                                                                                                                           *
 *                                                       Final Results                                                       *
 *                                                                                                                           *
 *****************************************************************************************************************************

::    Total SCF energy                                -78.0315443528
      One-electron energy                            -170.6979039935
      Two-electron energy                              58.9765616379
      Nuclear repulsion energy                         33.6897980029
      Kinetic energy (interpolated)                    77.9830203315
      Virial theorem                                    1.0006222383
      Total spin, S(S+1)                                0.0000000000
      Total spin, S                                     0.0000000000
      Max non-diagonal density matrix element           0.0000002627
      Max non-diagonal Fock matrix element              0.0000000237


      All orbitals with orbital energies smaller than  E(LUMO)+0.5 are printed

++    Molecular orbitals:
      -------------------

      Title: SCF orbitals

      Molecular orbitals for symmetry species 1: a  

          Orbital            1         2         3         4         5         6         7         8         9        10    
          Energy          -11.2242  -11.2224   -1.0331   -0.7895   -0.6406   -0.5864   -0.5019   -0.3743    0.1845    0.2675
          Occ. No.          2.0000    2.0000    2.0000    2.0000    2.0000    2.0000    2.0000    2.0000    0.0000    0.0000

        1 C1     1s         0.7037   -0.7042   -0.1580    0.1195   -0.0000    0.0123    0.0000    0.0000    0.0000    0.0777
        2 C1     2s         0.0193   -0.0198    0.2984   -0.2312    0.0000   -0.0284   -0.0000   -0.0000    0.0000   -0.0803
        3 C1     *s        -0.0053    0.0112    0.2285   -0.2328    0.0000    0.0155   -0.0000   -0.0000   -0.0000   -1.5027
        4 C1     2px       -0.0001   -0.0002    0.1076    0.1685    0.0000   -0.4083    0.0000   -0.0000    0.0000    0.1455
        5 C1     *px        0.0007    0.0017    0.0063    0.0671    0.0000   -0.1529   -0.0000    0.0000    0.0000    0.6524
        6 C1     2py       -0.0000    0.0000   -0.0000    0.0000    0.3224    0.0000   -0.3042   -0.0000    0.0000    0.0000
        7 C1     *py       -0.0000   -0.0000   -0.0000    0.0000    0.1283    0.0000   -0.1972    0.0000    0.0000    0.0000
        8 C1     2pz       -0.0000    0.0000    0.0000   -0.0000   -0.0000    0.0000   -0.0000    0.3755   -0.3406    0.0000
        9 C1     *pz       -0.0000   -0.0000    0.0000   -0.0000    0.0000    0.0000    0.0000    0.3036   -0.7470    0.0000
       10 C1     *200      -0.0008    0.0006    0.0099   -0.0007    0.0000   -0.0066    0.0000   -0.0000   -0.0000   -0.0023
       11 C1     *110      -0.0000   -0.0000    0.0000   -0.0000   -0.0129   -0.0000    0.0373   -0.0000    0.0000    0.0000
       12 C1     *101      -0.0000    0.0000    0.0000   -0.0000   -0.0000    0.0000    0.0000    0.0256    0.0241    0.0000
       13 C1     *020      -0.0010    0.0007    0.0027   -0.0138   -0.0000    0.0154   -0.0000    0.0000   -0.0000    0.0063
       14 C1     *011      -0.0000   -0.0000    0.0000   -0.0000    0.0000   -0.0000    0.0000    0.0000    0.0000   -0.0000
       15 C1     *002      -0.0011    0.0010   -0.0074    0.0063   -0.0000   -0.0008    0.0000    0.0000   -0.0000    0.0026
       16 C2     1s         0.7037    0.7042   -0.1580   -0.1195   -0.0000    0.0123   -0.0000    0.0000   -0.0000    0.0777
       17 C2     2s         0.0193    0.0198    0.2984    0.2312    0.0000   -0.0284    0.0000    0.0000    0.0000   -0.0803
       18 C2     *s        -0.0053   -0.0112    0.2285    0.2328   -0.0000    0.0155    0.0000   -0.0000   -0.0000   -1.5027
       19 C2     2px        0.0001   -0.0002   -0.1076    0.1685   -0.0000    0.4083    0.0000    0.0000   -0.0000   -0.1455
       20 C2     *px       -0.0007    0.0017   -0.0063    0.0671   -0.0000    0.1529   -0.0000   -0.0000    0.0000   -0.6524
       21 C2     2py       -0.0000   -0.0000   -0.0000   -0.0000    0.3224    0.0000    0.3042    0.0000    0.0000    0.0000
       22 C2     *py        0.0000    0.0000    0.0000   -0.0000    0.1283    0.0000    0.1972   -0.0000   -0.0000   -0.0000
       23 C2     2pz       -0.0000   -0.0000    0.0000   -0.0000   -0.0000   -0.0000   -0.0000    0.3755    0.3406   -0.0000
       24 C2     *pz       -0.0000    0.0000   -0.0000   -0.0000   -0.0000   -0.0000   -0.0000    0.3036    0.7470   -0.0000
       25 C2     *200      -0.0008   -0.0006    0.0099    0.0007    0.0000   -0.0066    0.0000    0.0000   -0.0000   -0.0023
       26 C2     *110       0.0000   -0.0000   -0.0000   -0.0000    0.0129    0.0000    0.0373   -0.0000   -0.0000   -0.0000
       27 C2     *101      -0.0000   -0.0000   -0.0000   -0.0000   -0.0000   -0.0000   -0.0000   -0.0256    0.0241    0.0000
       28 C2     *020      -0.0010   -0.0007    0.0027    0.0138   -0.0000    0.0154    0.0000   -0.0000    0.0000    0.0063
       29 C2     *011      -0.0000   -0.0000   -0.0000   -0.0000    0.0000    0.0000   -0.0000   -0.0000   -0.0000    0.0000
       30 C2     *002      -0.0011   -0.0010   -0.0074   -0.0063    0.0000   -0.0008   -0.0000    0.0000   -0.0000    0.0026
       31 H3     1s        -0.0001    0.0001    0.0828   -0.1469    0.1575    0.1252   -0.1895   -0.0000   -0.0000    0.0123
       32 H3     *s         0.0015   -0.0015    0.0156   -0.0666    0.1071    0.1005   -0.1554    0.0000    0.0000    1.0427
       33 H4     1s        -0.0001    0.0001    0.0828   -0.1469   -0.1575    0.1252    0.1895   -0.0000    0.0000    0.0123
       34 H4     *s         0.0015   -0.0015    0.0156   -0.0666   -0.1071    0.1005    0.1554    0.0000    0.0000    1.0427
       35 H5     1s        -0.0001   -0.0001    0.0828    0.1469    0.1575    0.1252    0.1895    0.0000    0.0000    0.0123
       36 H5     *s         0.0015    0.0015    0.0156    0.0666    0.1071    0.1005    0.1554    0.0000    0.0000    1.0427
       37 H6     1s        -0.0001   -0.0001    0.0828    0.1469   -0.1575    0.1252   -0.1895   -0.0000   -0.0000    0.0123
       38 H6     *s         0.0015    0.0015    0.0156    0.0666   -0.1071    0.1005   -0.1554    0.0000   -0.0000    1.0427

          Orbital           11        12        13        14        15    
          Energy            0.2938    0.3115    0.3936    0.4974    0.6622
          Occ. No.          0.0000    0.0000    0.0000    0.0000    0.0000

        1 C1     1s         0.0000    0.1078   -0.0000   -0.0659   -0.0223
        2 C1     2s        -0.0000   -0.1010   -0.0000    0.0007   -0.2163
        3 C1     *s        -0.0000   -1.9613    0.0000    3.2039   -0.1932
        4 C1     2px        0.0000    0.1012    0.0000    0.1272   -0.5463
        5 C1     *px       -0.0000    0.1560    0.0000    3.0536    1.0384
        6 C1     2py        0.2538   -0.0000   -0.2468    0.0000   -0.0000
        7 C1     *py        0.8022   -0.0000   -1.9131    0.0000    0.0000
        8 C1     2pz       -0.0000    0.0000   -0.0000    0.0000    0.0000
        9 C1     *pz        0.0000    0.0000   -0.0000    0.0000   -0.0000
       10 C1     *200       0.0000    0.0022    0.0000    0.0014   -0.0436
       11 C1     *110       0.0228   -0.0000    0.0176    0.0000   -0.0000
       12 C1     *101      -0.0000    0.0000   -0.0000    0.0000    0.0000
       13 C1     *020       0.0000   -0.0007   -0.0000    0.0136    0.0181
       14 C1     *011       0.0000   -0.0000   -0.0000    0.0000   -0.0000
       15 C1     *002       0.0000    0.0065   -0.0000   -0.0069   -0.0008
       16 C2     1s        -0.0000   -0.1078    0.0000    0.0659   -0.0223
       17 C2     2s         0.0000    0.1010   -0.0000   -0.0007   -0.2163
       18 C2     *s         0.0000    1.9613   -0.0000   -3.2039   -0.1932
       19 C2     2px        0.0000    0.1012   -0.0000    0.1272    0.5463
       20 C2     *px       -0.0000    0.1560    0.0000    3.0536   -1.0384
       21 C2     2py        0.2538   -0.0000    0.2468   -0.0000   -0.0000
       22 C2     *py        0.8022   -0.0000    1.9131   -0.0000   -0.0000
       23 C2     2pz       -0.0000   -0.0000   -0.0000    0.0000    0.0000
       24 C2     *pz        0.0000   -0.0000    0.0000   -0.0000   -0.0000
       25 C2     *200      -0.0000   -0.0022   -0.0000   -0.0014   -0.0436
       26 C2     *110      -0.0228    0.0000    0.0176   -0.0000    0.0000
       27 C2     *101       0.0000   -0.0000    0.0000    0.0000   -0.0000
       28 C2     *020      -0.0000    0.0007   -0.0000   -0.0136    0.0181
       29 C2     *011       0.0000   -0.0000   -0.0000    0.0000   -0.0000
       30 C2     *002      -0.0000   -0.0065    0.0000    0.0069   -0.0008
       31 H3     1s        -0.0407    0.0149   -0.0415    0.0809    0.0955
       32 H3     *s        -1.0995    1.0844    1.6449    0.5954    0.0616
       33 H4     1s         0.0407    0.0149    0.0415    0.0809    0.0955
       34 H4     *s         1.0995    1.0844   -1.6449    0.5954    0.0616
       35 H5     1s        -0.0407   -0.0149    0.0415   -0.0809    0.0955
       36 H5     *s        -1.0995   -1.0844   -1.6449   -0.5954    0.0616
       37 H6     1s         0.0407   -0.0149   -0.0415   -0.0809    0.0955
       38 H6     *s         1.0995   -1.0844    1.6449   -0.5954    0.0616
--


++    Molecular charges:
      ------------------

      Mulliken charges per centre and basis function type
      ---------------------------------------------------

                C1      C2      H3      H4      H5      H6    
      1s       1.9965  1.9965  0.5285  0.5285  0.5285  0.5285
      2s       0.6624  0.6624  0.0000  0.0000  0.0000  0.0000
      2px      0.7635  0.7635  0.0000  0.0000  0.0000  0.0000
      2pz      0.5084  0.5084  0.0000  0.0000  0.0000  0.0000
      2py      0.7151  0.7151  0.0000  0.0000  0.0000  0.0000
      *s       0.5721  0.5721  0.2947  0.2947  0.2947  0.2947
      *px      0.2288  0.2288  0.0000  0.0000  0.0000  0.0000
      *pz      0.4835  0.4835  0.0000  0.0000  0.0000  0.0000
      *py      0.3614  0.3614  0.0000  0.0000  0.0000  0.0000
      *200     0.0248  0.0248  0.0000  0.0000  0.0000  0.0000
      *110     0.0196  0.0196  0.0000  0.0000  0.0000  0.0000
      *101     0.0081  0.0081  0.0000  0.0000  0.0000  0.0000
      *020     0.0299  0.0299  0.0000  0.0000  0.0000  0.0000
      *011     0.0000  0.0000  0.0000  0.0000  0.0000  0.0000
      *002    -0.0204 -0.0204  0.0000  0.0000  0.0000  0.0000
      Total    6.3536  6.3536  0.8232  0.8232  0.8232  0.8232

      N-E     -0.3536 -0.3536  0.1768  0.1768  0.1768  0.1768

      Total electronic charge=   16.000000

      Total            charge=   -0.000000
--


++    Molecular properties:
      ---------------------

      Charge (e):
                      =   -0.0000
      Dipole Moment (Debye):
      Origin of the operator (Ang)=    0.0000    0.0000    0.0000
                   X=  1.3851E-11               Y=  2.1305E-14               Z= -3.1195E-16           Total=  1.3851E-11
      Quadrupole Moment (Debye*Ang):
      Origin of the operator (Ang)=    0.0000    0.0000    0.0000
                  XX= -1.1979E+01              XY= -1.6725E-14              XZ=  1.6590E-16              YY= -1.2235E+01
                  YZ=  7.0782E-16              ZZ= -1.5375E+01
      In traceless form (Debye*Ang)
                  XX=  1.8264E+00              XY= -2.5087E-14              XZ=  2.4885E-16              YY=  1.4416E+00
                  YZ=  1.0617E-15              ZZ= -3.2679E+00
--


      Input file to MOLDEN was generated!

 ###############################################################################
 ###############################################################################
 ###                                                                         ###
 ###                                                                         ###
 ###    WARNING: RunFile label nBas                                          ###
 ###    was used       62 times                                              ###
 ###                                                                         ###
 ###                                                                         ###
 ###############################################################################
 ###############################################################################
--- Stop Module: scf at Tue Jun 18 23:42:27 2024 /rc=_RC_ALL_IS_WELL_ ---
*** files: a.scf.molden a.ScfOrb xmldump
    saved to directory /data/home/nisimoto/tutorial_molcas/07

*** symbolic link created: INPORB -> a.ScfOrb
--- Start Module: rasscf at Tue Jun 18 23:42:27 2024 ---

()()()()()()()()()()()()()()()()()()()()()()()()()()()()()()()()()()()()()()()()()()()()()()()()()()

                                              &RASSCF

                       only a single process is used, running in SERIAL mode
                       available to each process: 2.0 GB of memory, 6 threads
                                             pid: 20984
()()()()()()()()()()()()()()()()()()()()()()()()()()()()()()()()()()()()()()()()()()()()()()()()()()


      Header of the ONEINT file:
      --------------------------
      
      Integrals generated by Gateway/Seward, Tue Jun 18 23:42:26 2024


      OrdInt status: non-squared


      Cartesian coordinates in Angstrom:
      -----------------------------------------------------
      No.  Label        X            Y            Z        
      -----------------------------------------------------
       1   C1        -0.65846700   0.00000000   0.00000000
       2   C2         0.65846700   0.00000000   0.00000000
       3   H3        -1.22569400   0.91433400   0.00000000
       4   H4        -1.22569400  -0.91433400   0.00000000
       5   H5         1.22569400   0.91433400   0.00000000
       6   H6         1.22569400  -0.91433400   0.00000000
      -----------------------------------------------------
      Nuclear repulsion energy =   33.68979800

++    Wave function specifications:
      -----------------------------

      Number of closed shell electrons          14
      Number of electrons in active shells       2
      Max number of holes in RAS1 space          0
      Max nr of electrons in RAS3 space          0
      Number of inactive orbitals                7
      Number of active orbitals                  2
      Number of secondary orbitals              29
      Spin quantum number                      0.0
      State symmetry                             1
--

++    Orbital specifications:
      -----------------------

      Symmetry species                           1
                                                 a
      Frozen orbitals                            0
      Inactive orbitals                          7
      Active orbitals                            2
      RAS1 orbitals                              0
      RAS2 orbitals                              2
      RAS3 orbitals                              0
      Secondary orbitals                        29
      Deleted orbitals                           0
      Number of basis functions                 38
--

++    CI expansion specifications:
      ----------------------------

      Number of CSFs                             3
      Number of determinants                     3
      Number of root(s) required                 1
      Root chosen for geometry opt.              1
      CI root used                               1
         
      highest root included in the CI            1
      max. size of the explicit Hamiltonian      3
--

++    Optimization specifications:
      ----------------------------

      RASSCF algorithm: LK RI/DF
      Maximum number of macro iterations       200
      Maximum number of SX iterations          100
      Threshold for RASSCF energy            1.000E-08
      Threshold for max MO rotation          1.000E-01
      Threshold for max BLB element          1.000E-04
      Level shift parameter                  5.000E-01
      Make Quasi-Newton update
--

      Orbitals from runfile: scf orbitals
      The MO-coefficients are taken from scf orbitals on runfile

      Total molecular charge    0.00

      ************************************************************************************************************************
      *                                                                                                                      *
      *                                            Wave function control section                                             *
      *                                                                                                                      *
      ************************************************************************************************************************


                                         RASSCF iterations: Energy and convergence statistics
                                         ----------------------------------------------------

      Iter CI   SX   CI       RASSCF       Energy    max ROT     max BLB   max BLB  Level Ln srch  Step   QN   Walltime
          iter iter root      energy       change     param      element    value   shift minimum  type update hh:mm:ss
 Nr of preliminary CI iterations:   1
        1   1    3    1   -78.05075381    0.00E+00  -2.06E-01*   9  19 1  2.36E-02*  0.00   0.00    SX    NO    0:00:00
        2   1    3    1   -78.05842906   -7.68E-03* -5.69E-02    8  17 1 -1.41E-02*  0.00   0.00    SX    NO    0:00:00
        3   1    4    1   -78.05934438   -9.15E-04* -2.22E-02    8  17 1 -7.50E-03*  0.00   0.00    SX    NO    0:00:00
        4   1    3    1   -78.05950391   -1.60E-04*  9.31E-03    8  17 1 -3.26E-03*  0.00   0.00    SX    NO    0:00:00
        5   1    3    1   -78.05953330   -2.94E-05*  7.11E-03    8  17 1 -1.51E-03*  0.00   1.77    LS   YES    0:00:00
        6   1    3    1   -78.05954008   -6.78E-06* -8.98E-05    8  27 1  3.56E-04*  0.00   1.00    QN   YES    0:00:00
        7   1    3    1   -78.05954016   -7.58E-08* -2.58E-05    6  15 1  5.57E-05   0.00   0.93    QN   YES    0:00:00
        8   1    2    1   -78.05954016   -8.22E-09  -9.88E-06    6  18 1 -6.46E-06   0.00   1.06    QN   YES    0:00:00
      Convergence after  8 iterations
        9   1    2    1   -78.05954016   -8.26E-11  -9.88E-06    6  18 1 -9.04E-07   0.00   1.06    QN   YES    0:00:00

      ************************************************************************************************************************
                                                      Wave function printout:
                       occupation of active orbitals, and spin coupling of open shells (u,d: Spin up or down)
      ************************************************************************************************************************

      Note: transformation to natural orbitals
      has been made, which may change the order of the CSFs.

      printout of CI-coefficients larger than  0.05 for root  1
      energy=     -78.059540
      conf/sym  11     Coeff  Weight
             1  20   0.97855 0.95755
             3  02  -0.20603 0.04245

      Natural orbitals and occupation numbers for root  1
      sym 1:   1.915106   0.084894

      ************************************************************************************************************************
      *                                                                                                                      *
      *                                                    Final results                                                     *
      *                                                                                                                      *
      ************************************************************************************************************************


++    Wave function specifications:
      -----------------------------

      Number of closed shell electrons          14
      Number of electrons in active shells       2
      Max number of holes in RAS1 space          0
      Max nr of electrons in RAS3 space          0
      Number of inactive orbitals                7
      Number of active orbitals                  2
      Number of secondary orbitals              29
      Spin quantum number                      0.0
      State symmetry                             1
--

++    Orbital specifications:
      -----------------------

      Symmetry species                           1
                                                 a
      Frozen orbitals                            0
      Inactive orbitals                          7
      Active orbitals                            2
      RAS1 orbitals                              0
      RAS2 orbitals                              2
      RAS3 orbitals                              0
      Secondary orbitals                        29
      Deleted orbitals                           0
      Number of basis functions                 38
--

++    CI expansion specifications:
      ----------------------------

      Number of CSFs                             3
      Number of determinants                     3
      Number of root(s) required                 1
      CI root used                               1
      highest root included in the CI            1
      Root passed to geometry opt.               1
--

++    Final optimization conditions:
      ------------------------------

      Average CI energy                             -78.05954016
      RASSCF energy for state  1                    -78.05954016
      Super-CI energy                                -0.00000000
      RASSCF energy change                           -0.00000000
      Max change in MO coefficients              -9.149E-06
      Max non-diagonal density matrix element    -9.876E-06
      Maximum BLB matrix element                 -9.041E-07
      (orbital pair   6,  18 in symmetry   1)
      Norm of electronic gradient            1.805E-06
--


      Final state energy(ies):
      ------------------------

::    RASSCF root number  1 Total energy:    -78.05954016

++    Molecular orbitals:
      -------------------

      Pseudonatural active orbitals and approximate occupation numbers




      Molecular orbitals for symmetry species 1: a  


      Orbital                 1         2         3         4         5         6         7         8         9
      Energy           -11.2136  -11.2118   -1.0293   -0.7858   -0.6374   -0.5823   -0.4986    0.0000    0.0000
      Occ. No.           2.0000    2.0000    2.0000    2.0000    2.0000    2.0000    2.0000    1.9151    0.0849

     1 C1     1s         0.7037   -0.7042   -0.1579    0.1195   -0.0000    0.0123    0.0000    0.0000   -0.0000
     2 C1     2s         0.0195   -0.0200    0.2974   -0.2295    0.0000   -0.0291   -0.0000   -0.0000    0.0000
     3 C1     *s        -0.0054    0.0112    0.2273   -0.2356    0.0000    0.0147   -0.0000   -0.0000   -0.0000
     4 C1     2px       -0.0001   -0.0002    0.1083    0.1670    0.0000   -0.4067    0.0000   -0.0000    0.0000
     5 C1     *px        0.0007    0.0017    0.0068    0.0654    0.0000   -0.1532   -0.0000    0.0000    0.0000
     6 C1     2py        0.0000    0.0000   -0.0000    0.0000    0.3206    0.0000   -0.3023   -0.0000    0.0000
     7 C1     *py        0.0000    0.0000   -0.0000    0.0000    0.1293    0.0000   -0.1983    0.0000    0.0000
     8 C1     2pz       -0.0000    0.0000    0.0000   -0.0000   -0.0000    0.0000   -0.0000    0.3898   -0.5742
     9 C1     *pz       -0.0000   -0.0000    0.0000   -0.0000    0.0000    0.0000    0.0000    0.2921   -0.3976
    10 C1     *200      -0.0008    0.0006    0.0101   -0.0007    0.0000   -0.0068    0.0000   -0.0000   -0.0000
    11 C1     *110      -0.0000   -0.0000    0.0000   -0.0000   -0.0126   -0.0000    0.0369   -0.0000    0.0000
    12 C1     *101      -0.0000    0.0000    0.0000   -0.0000   -0.0000    0.0000    0.0000    0.0218    0.0058
    13 C1     *020      -0.0010    0.0008    0.0029   -0.0138   -0.0000    0.0154    0.0000    0.0000   -0.0000
    14 C1     *011      -0.0000   -0.0000    0.0000   -0.0000    0.0000   -0.0000    0.0000    0.0000    0.0000
    15 C1     *002      -0.0011    0.0011   -0.0073    0.0060   -0.0000   -0.0007    0.0000    0.0000   -0.0000
    16 C2     1s         0.7037    0.7042   -0.1579   -0.1195   -0.0000    0.0123   -0.0000    0.0000    0.0000
    17 C2     2s         0.0195    0.0200    0.2974    0.2295    0.0000   -0.0291    0.0000    0.0000   -0.0000
    18 C2     *s        -0.0054   -0.0112    0.2273    0.2356   -0.0000    0.0147    0.0000   -0.0000   -0.0000
    19 C2     2px        0.0001   -0.0002   -0.1083    0.1670   -0.0000    0.4067    0.0000    0.0000   -0.0000
    20 C2     *px       -0.0007    0.0017   -0.0068    0.0654   -0.0000    0.1532   -0.0000   -0.0000    0.0000
    21 C2     2py       -0.0000   -0.0000   -0.0000   -0.0000    0.3206    0.0000    0.3023    0.0000    0.0000
    22 C2     *py       -0.0000   -0.0000   -0.0000   -0.0000    0.1293    0.0000    0.1983   -0.0000   -0.0000
    23 C2     2pz       -0.0000   -0.0000    0.0000   -0.0000   -0.0000   -0.0000   -0.0000    0.3898    0.5742
    24 C2     *pz       -0.0000    0.0000   -0.0000   -0.0000   -0.0000   -0.0000   -0.0000    0.2921    0.3976
    25 C2     *200      -0.0008   -0.0006    0.0101    0.0007    0.0000   -0.0068   -0.0000    0.0000   -0.0000
    26 C2     *110      -0.0000    0.0000   -0.0000   -0.0000    0.0126    0.0000    0.0369   -0.0000   -0.0000
    27 C2     *101      -0.0000   -0.0000   -0.0000   -0.0000   -0.0000   -0.0000   -0.0000   -0.0218    0.0058
    28 C2     *020      -0.0010   -0.0008    0.0029    0.0138   -0.0000    0.0154   -0.0000   -0.0000    0.0000
    29 C2     *011      -0.0000   -0.0000   -0.0000   -0.0000    0.0000    0.0000   -0.0000   -0.0000   -0.0000
    30 C2     *002      -0.0011   -0.0011   -0.0073   -0.0060    0.0000   -0.0007   -0.0000    0.0000    0.0000
    31 H3     1s        -0.0001    0.0001    0.0828   -0.1470    0.1574    0.1255   -0.1894   -0.0000   -0.0000
    32 H3     *s         0.0015   -0.0015    0.0164   -0.0677    0.1077    0.1020   -0.1566    0.0000    0.0000
    33 H4     1s        -0.0001    0.0001    0.0828   -0.1470   -0.1574    0.1255    0.1894   -0.0000    0.0000
    34 H4     *s         0.0015   -0.0015    0.0164   -0.0677   -0.1077    0.1020    0.1566    0.0000    0.0000
    35 H5     1s        -0.0001   -0.0001    0.0828    0.1470    0.1574    0.1255    0.1894    0.0000    0.0000
    36 H5     *s         0.0015    0.0015    0.0164    0.0677    0.1077    0.1020    0.1566    0.0000    0.0000
    37 H6     1s        -0.0001   -0.0001    0.0828    0.1470   -0.1574    0.1255   -0.1894   -0.0000   -0.0000
    38 H6     *s         0.0015    0.0015    0.0164    0.0677   -0.1077    0.1020   -0.1566    0.0000   -0.0000
--

      Von Neumann Entropy (Root   1) =  0.25340


      Mulliken population analysis for root number:  1
      -----------------------------------------------


++    Molecular charges:
      ------------------

      Mulliken charges per centre and basis function type
      ---------------------------------------------------

                C1      C2      H3      H4      H5      H6    
      1s       1.9964  1.9964  0.5289  0.5289  0.5289  0.5289
      2s       0.6591  0.6591  0.0000  0.0000  0.0000  0.0000
      2px      0.7598  0.7598  0.0000  0.0000  0.0000  0.0000
      2pz      0.5405  0.5405  0.0000  0.0000  0.0000  0.0000
      2py      0.7098  0.7098  0.0000  0.0000  0.0000  0.0000
      *s       0.5725  0.5725  0.2990  0.2990  0.2990  0.2990
      *px      0.2274  0.2274  0.0000  0.0000  0.0000  0.0000
      *pz      0.4530  0.4530  0.0000  0.0000  0.0000  0.0000
      *py      0.3643  0.3643  0.0000  0.0000  0.0000  0.0000
      *200     0.0253  0.0253  0.0000  0.0000  0.0000  0.0000
      *110     0.0193  0.0193  0.0000  0.0000  0.0000  0.0000
      *101     0.0065  0.0065  0.0000  0.0000  0.0000  0.0000
      *020     0.0303  0.0303  0.0000  0.0000  0.0000  0.0000
      *011     0.0000  0.0000  0.0000  0.0000  0.0000  0.0000
      *002    -0.0198 -0.0198  0.0000  0.0000  0.0000  0.0000
      Total    6.3444  6.3444  0.8278  0.8278  0.8278  0.8278

      N-E     -0.3444 -0.3444  0.1722  0.1722  0.1722  0.1722

      Total electronic charge=   16.000000

      Total            charge=   -0.000000
--



      Expectation values of various properties for root number:  1
      -----------------------------------------------------------


++    Molecular properties:
      ---------------------

      Charge (e):
                      =   -0.0000
      Dipole Moment (Debye):
      Origin of the operator (Ang)=    0.0000    0.0000    0.0000
                   X= -1.6401E-10               Y=  1.4039E-14               Z= -3.6981E-16           Total=  1.6401E-10
      Quadrupole Moment (Debye*Ang):
      Origin of the operator (Ang)=    0.0000    0.0000    0.0000
                  XX= -1.2163E+01              XY= -2.3893E-14              XZ=  2.2651E-16              YY= -1.2257E+01
                  YZ=  6.9475E-16              ZZ= -1.5130E+01
      In traceless form (Debye*Ang)
                  XX=  1.5304E+00              XY= -3.5839E-14              XZ=  3.3977E-16              YY=  1.3902E+00
                  YZ=  1.0421E-15              ZZ= -2.9206E+00
--


      Input file to MOLDEN was generated!

      Average orbitals are written to the RASORB file
      Natural orbitals for root   1 are written to the RASORB.1 file
      Spin density orbitals for root   1 are written to the SPDORB.1 file

--- Stop Module: rasscf at Tue Jun 18 23:42:28 2024 /rc=_RC_ALL_IS_WELL_ ---
*** files: a.rasscf.molden a.RasOrb.1 a.RasOrb a.SpdOrb.1 xmldump
    saved to directory /data/home/nisimoto/tutorial_molcas/07

*** symbolic link created: INPORB -> a.RasOrb
--- Start Module: caspt2 at Tue Jun 18 23:42:28 2024 ---

()()()()()()()()()()()()()()()()()()()()()()()()()()()()()()()()()()()()()()()()()()()()()()()()()()

                                              &CASPT2

                       only a single process is used, running in SERIAL mode
                       available to each process: 2.0 GB of memory, 6 threads
                                             pid: 20993
()()()()()()()()()()()()()()()()()()()()()()()()()()()()()()()()()()()()()()()()()()()()()()()()()()


++    Wave function specifications:
      -----------------------------

      Number of closed shell electrons          10
      Number of electrons in active shells       2
      Max number of holes in RAS1 space          0
      Max number of electrons in RAS3 space      0
      Number of inactive orbitals                5
      Number of active orbitals                  2
      Number of secondary orbitals              29
      Spin quantum number                      0.0
      State symmetry                             1
      Number of CSFs                             3
      Number of CASSCF root(s) available         1
      CASPT2 state passed to geometry opt.       1
      A file JOBMIX will be created
      This is a CASSCF or RASSCF reference function
--

++    Orbital specifications:
      -----------------------

      Symmetry species                           1
                                                 a
      Frozen orbitals                            2
      Inactive orbitals                          5
      Active orbitals                            2
      Secondary orbitals                        29
      Deleted orbitals                           0
      Number of basis functions                 38
--

++    CASPT2 specifications:
      ----------------------

      Type of calculation                        SS-CASPT2
      Fock operator                              state-specific
      IPEA shift                                 0.00
      Real shift                                 0.00
      Imaginary shift                            0.20
      The input orbitals will be transformed to quasi-canonical
--

--------------------------------------------------------------------------------
 Estimated memory requirements:
  POLY3 :                   250070
  RHS:                      268234
  SIGMA :                   267400
  PRPCTL:                        0
 Available workspace:    230390491

++ CASPT2 computation for group   1

********************************************************************************
 Multi-State initialization phase begins for group   1
--------------------------------------------------------------------------------
********************************************************************************
 Compute H0 matrices for state    1
--------------------------------------------------------------------------------
--------------------------------------------------------------------------------
 H0 matrices have been computed.

********************************************************************************
  CASPT2 EQUATION SOLUTION
--------------------------------------------------------------------------------

  Total nr of CASPT2 parameters:
   Before reduction:       23643
   After  reduction:       21543

 Variance of |WF0>:       0.7930632369

 The contributions to the second order correlation energy in atomic units.
-----------------------------------------------------------------------------------------------------------------------------
  IT.      VJTU        VJTI        ATVX        AIVX        VJAI        BVAT        BJAT        BJAI        TOTAL       RNORM  
-----------------------------------------------------------------------------------------------------------------------------
   1    -0.000000   -0.001199    0.000000   -0.029490   -0.006632   -0.005071   -0.044363   -0.140080   -0.226836    0.002501
   2    -0.000000   -0.001224    0.000000   -0.029684   -0.006654   -0.005075   -0.044376   -0.140085   -0.227099    0.000212
   3    -0.000000   -0.001225    0.000000   -0.029685   -0.006654   -0.005075   -0.044378   -0.140085   -0.227103    0.000026
   4    -0.000000   -0.001225    0.000000   -0.029684   -0.006654   -0.005075   -0.044378   -0.140086   -0.227101    0.000003
-----------------------------------------------------------------------------------------------------------------------------

  FINAL CASPT2 RESULT:

      Reference energy:         -78.0595401636
      E2 (Non-variational):      -0.2271010975
      Shift correction:          -0.0011076646
      E2 (Variational):          -0.2282087621
      Total energy:             -78.2877489257
      Residual norm:              0.0000003189
      Reference weight:           0.93091

      Contributions to the CASPT2 correlation energy
      Active & Virtual Only:         -0.0050752983
      One Inactive Excited:          -0.0740614288
      Two Inactive Excited:          -0.1479643704


++ Denominators, etc.
--------------------------------------------------------------------------------------------------------------
 Report on small energy denominators, large coefficients, and large energy contributions.
CASE  SYMM ACTIVE-MIX  NON-ACTIVE INDICES          DENOMINATOR     RHS VALUE       COEFFICIENT     CONTRIBUTION
AIVX     1  Mu1.0002  In1.004 Se1.010               1.60170457      0.04876372     -0.02913283     -0.00142063
AIVX     1  Mu1.0002  In1.005 Se1.013               1.57972392     -0.05112155      0.03060538     -0.00156459
AIVX     1  Mu1.0002  In1.006 Se1.014               1.62846999     -0.05844685      0.03537384     -0.00206749
AIVX     1  Mu1.0002  In1.007 Se1.016               1.81557111      0.06799614     -0.03665895     -0.00249267
AIVX     1  Mu1.0003  In1.003 Se1.020               2.54529947     -0.06846682      0.02648942     -0.00181365
AIVX     1  Mu1.0002  In1.006 Se1.020               2.09836145      0.09298637     -0.04301998     -0.00400027
BJATM    1  Mu1.0001  In1.006 Se1.017 Se1.015       2.32868093      0.06576328     -0.02803667     -0.00184378
BJAIP    1  Se1.011 In1.005 Se1.013 In1.007         1.82656389      0.04785816     -0.02589079     -0.00123909
BJAIM    1  Se1.011 In1.005 Se1.014 In1.006         2.17899937      0.06352305     -0.02890885     -0.00183638
--

   (Skipping property calculation,
    use PROP keyword to activate)
--

  Total CASPT2 energies:
::    CASPT2 Root  1     Total energy:    -78.28774893

  A NEW JOBIPH FILE NAMED 'JOBMIX' IS PREPARED.
********************************************************************************
--- Stop Module: caspt2 at Tue Jun 18 23:42:29 2024 /rc=_RC_ALL_IS_WELL_ ---
*** files: xmldump
    saved to directory /data/home/nisimoto/tutorial_molcas/07

.##################.
.# Happy landing! #.
.##################.

    Timing: Wall=4.22 User=4.11 System=0.39
*************************************
*** WorkDir at /dev/shm/a cleaned ***
*************************************
